 # REMARK   Materials Studio PDB file
 
        2688  atoms
           2  atom types
 
      0.000000000000      41.039000000000  xlo xhi
      0.000000000000      40.881000000000  ylo yhi
      0.000000000000      40.621000000000  zlo zhi
 
Masses
 
            1   28.08500000             # Si
            2   15.99900000             # O
 
Atoms # charge
 
         1    1  -4.000000        1.999000000000      -1.154000000000       3.603000000000
         2    1  -4.000000        0.000000000000       2.309000000000       1.802000000000
         3    1  -4.000000        2.256000000000       1.302000000000       0.000000000000
         4    2  -2.000000        1.762000000000       0.300000000000       4.246000000000
         5    2  -2.000000        3.114000000000      -1.081000000000       2.444000000000
         6    2  -2.000000        3.634000000000       0.781000000000       0.642000000000
         7    2  -2.000000        1.141000000000       1.376000000000       1.159000000000
         8    2  -2.000000        0.621000000000       3.237000000000       2.961000000000
         9    2  -2.000000        2.493000000000       2.757000000000       4.763000000000
        10    2  -2.000000       -6.017000000000      -2.157000000000     -22.263000000000
        11    2  -2.000000       -1.762000000000      -4.613000000000     -22.263000000000
        12    2  -2.000000       -1.762000000000       0.300000000000     -22.263000000000
        13    2  -2.000000      -14.527000000000      -7.070000000000     -16.858000000000
        14    2  -2.000000      -10.272000000000      -9.527000000000     -16.858000000000
        15    2  -2.000000       -7.889000000000     -11.503000000000     -18.660000000000
        16    2  -2.000000       -6.017000000000     -11.984000000000     -16.858000000000
        17    2  -2.000000       -1.762000000000     -14.440000000000     -16.858000000000
        18    2  -2.000000      -15.258000000000      -4.613000000000     -17.375000000000
        19    2  -2.000000      -14.527000000000      -2.157000000000     -16.858000000000
        20    1  -4.000000      -10.766000000000      -8.524000000000     -18.017000000000
        21    2  -2.000000      -11.003000000000      -7.070000000000     -17.375000000000
        22    2  -2.000000       -9.651000000000      -8.451000000000     -19.177000000000
        23    2  -2.000000      -12.144000000000      -4.133000000000     -18.660000000000
        24    2  -2.000000      -10.272000000000      -4.613000000000     -16.858000000000
        25    1  -4.000000       -6.511000000000     -10.981000000000     -18.017000000000
        26    1  -4.000000       -8.510000000000      -7.518000000000     -19.819000000000
        27    2  -2.000000       -6.748000000000      -9.527000000000     -17.375000000000
        28    2  -2.000000       -5.396000000000     -10.908000000000     -19.177000000000
        29    2  -2.000000       -7.369000000000      -8.451000000000     -20.461000000000
        30    2  -2.000000       -7.889000000000      -6.589000000000     -18.660000000000
        31    2  -2.000000       -6.017000000000      -7.070000000000     -16.858000000000
        32    1  -4.000000       -2.256000000000     -13.438000000000     -18.017000000000
        33    1  -4.000000       -4.255000000000      -9.975000000000     -19.819000000000
        34    2  -2.000000       -2.493000000000     -11.984000000000     -17.375000000000
        35    2  -2.000000       -3.634000000000      -9.046000000000     -18.660000000000
        36    2  -2.000000       -1.762000000000      -9.527000000000     -16.858000000000
        37    2  -2.000000        0.621000000000     -11.503000000000     -18.660000000000
        38    2  -2.000000        2.493000000000     -11.984000000000     -16.858000000000
        39    2  -2.000000      -15.258000000000       0.300000000000     -17.375000000000
        40    2  -2.000000      -14.527000000000       2.757000000000     -16.858000000000
        41    1  -4.000000      -10.766000000000      -3.611000000000     -18.017000000000
        42    2  -2.000000      -11.003000000000      -2.157000000000     -17.375000000000
        43    2  -2.000000       -9.651000000000      -3.537000000000     -19.177000000000
        44    2  -2.000000       -9.132000000000      -1.676000000000     -20.978000000000
        45    2  -2.000000      -12.144000000000       0.781000000000     -18.660000000000
        46    2  -2.000000      -10.272000000000       0.300000000000     -16.858000000000
        47    1  -4.000000       -6.511000000000      -6.068000000000     -18.017000000000
        48    1  -4.000000       -8.510000000000      -2.605000000000     -19.819000000000
        49    1  -4.000000       -6.254000000000      -3.611000000000     -21.621000000000
        50    2  -2.000000       -6.748000000000      -4.613000000000     -17.375000000000
        51    2  -2.000000       -5.396000000000      -5.994000000000     -19.177000000000
        52    2  -2.000000       -4.876000000000      -4.133000000000     -20.978000000000
        53    2  -2.000000       -7.369000000000      -3.537000000000     -20.461000000000
        54    2  -2.000000       -7.889000000000      -1.676000000000     -18.660000000000
        55    2  -2.000000       -6.017000000000      -2.157000000000     -16.858000000000
        56    1  -4.000000       -2.256000000000      -8.524000000000     -18.017000000000
        57    1  -4.000000       -4.255000000000      -5.061000000000     -19.819000000000
        58    1  -4.000000       -1.999000000000      -6.068000000000     -21.621000000000
        59    2  -2.000000       -2.493000000000      -7.070000000000     -17.375000000000
        60    2  -2.000000       -1.141000000000      -8.451000000000     -19.177000000000
        61    2  -2.000000       -0.621000000000      -6.589000000000     -20.978000000000
        62    2  -2.000000       -3.114000000000      -5.994000000000     -20.461000000000
        63    2  -2.000000       -3.634000000000      -4.133000000000     -18.660000000000
        64    2  -2.000000       -1.762000000000      -4.613000000000     -16.858000000000
        65    1  -4.000000        1.999000000000     -10.981000000000     -18.017000000000
        66    1  -4.000000        0.000000000000      -7.518000000000     -19.819000000000
        67    2  -2.000000        1.762000000000      -9.527000000000     -17.375000000000
        68    2  -2.000000        3.114000000000     -10.908000000000     -19.177000000000
        69    2  -2.000000        1.141000000000      -8.451000000000     -20.461000000000
        70    2  -2.000000        0.621000000000      -6.589000000000     -18.660000000000
        71    2  -2.000000        2.493000000000      -7.070000000000     -16.858000000000
        72    2  -2.000000        6.017000000000     -11.984000000000     -17.375000000000
        73    2  -2.000000        4.876000000000      -9.046000000000     -18.660000000000
        74    2  -2.000000        6.748000000000      -9.527000000000     -16.858000000000
        75    1  -4.000000      -10.766000000000       1.302000000000     -18.017000000000
        76    2  -2.000000      -11.003000000000       2.757000000000     -17.375000000000
        77    2  -2.000000       -9.651000000000       1.376000000000     -19.177000000000
        78    2  -2.000000      -10.272000000000       5.213000000000     -16.858000000000
        79    1  -4.000000       -6.511000000000      -1.154000000000     -18.017000000000
        80    1  -4.000000       -8.510000000000       2.309000000000     -19.819000000000
        81    1  -4.000000       -6.254000000000       1.302000000000     -21.621000000000
        82    2  -2.000000       -6.748000000000       0.300000000000     -17.375000000000
        83    2  -2.000000       -5.396000000000      -1.081000000000     -19.177000000000
        84    2  -2.000000       -4.876000000000       0.781000000000     -20.978000000000
        85    2  -2.000000       -7.369000000000       1.376000000000     -20.461000000000
        86    2  -2.000000       -7.889000000000       3.237000000000     -18.660000000000
        87    2  -2.000000       -6.017000000000       2.757000000000     -16.858000000000
        88    1  -4.000000       -2.256000000000      -3.611000000000     -18.017000000000
        89    1  -4.000000       -4.255000000000      -0.148000000000     -19.819000000000
        90    1  -4.000000       -1.999000000000      -1.154000000000     -21.621000000000
        91    2  -2.000000       -2.493000000000      -2.157000000000     -17.375000000000
        92    2  -2.000000       -1.141000000000      -3.537000000000     -19.177000000000
        93    2  -2.000000       -0.621000000000      -1.676000000000     -20.978000000000
        94    2  -2.000000       -3.114000000000      -1.081000000000     -20.461000000000
        95    2  -2.000000       -3.634000000000       0.781000000000     -18.660000000000
        96    2  -2.000000       -1.762000000000       0.300000000000     -16.858000000000
        97    1  -4.000000        1.999000000000      -6.068000000000     -18.017000000000
        98    1  -4.000000        0.000000000000      -2.605000000000     -19.819000000000
        99    1  -4.000000        2.256000000000      -3.611000000000     -21.621000000000
       100    2  -2.000000        1.762000000000      -4.613000000000     -17.375000000000
       101    2  -2.000000        3.114000000000      -5.994000000000     -19.177000000000
       102    2  -2.000000        3.634000000000      -4.133000000000     -20.978000000000
       103    2  -2.000000        1.141000000000      -3.537000000000     -20.461000000000
       104    2  -2.000000        0.621000000000      -1.676000000000     -18.660000000000
       105    2  -2.000000        2.493000000000      -2.157000000000     -16.858000000000
       106    1  -4.000000        6.254000000000      -8.524000000000     -18.017000000000
       107    1  -4.000000        4.255000000000      -5.061000000000     -19.819000000000
       108    2  -2.000000        6.017000000000      -7.070000000000     -17.375000000000
       109    2  -2.000000        5.396000000000      -5.994000000000     -20.461000000000
       110    2  -2.000000        4.876000000000      -4.133000000000     -18.660000000000
       111    2  -2.000000        6.748000000000      -4.613000000000     -16.858000000000
       112    1  -4.000000      -10.766000000000       6.216000000000     -18.017000000000
       113    2  -2.000000      -11.003000000000       7.670000000000     -17.375000000000
       114    2  -2.000000       -9.651000000000       6.289000000000     -19.177000000000
       115    2  -2.000000      -10.272000000000      10.127000000000     -16.858000000000
       116    1  -4.000000       -6.511000000000       3.759000000000     -18.017000000000
       117    2  -2.000000       -6.748000000000       5.213000000000     -17.375000000000
       118    2  -2.000000       -5.396000000000       3.833000000000     -19.177000000000
       119    2  -2.000000       -4.876000000000       5.694000000000     -20.978000000000
       120    2  -2.000000       -7.369000000000       6.289000000000     -20.461000000000
       121    2  -2.000000       -7.889000000000       8.151000000000     -18.660000000000
       122    2  -2.000000       -6.017000000000       7.670000000000     -16.858000000000
       123    1  -4.000000       -2.256000000000       1.302000000000     -18.017000000000
       124    1  -4.000000       -4.255000000000       4.765000000000     -19.819000000000
       125    1  -4.000000       -1.999000000000       3.759000000000     -21.621000000000
       126    2  -2.000000       -2.493000000000       2.757000000000     -17.375000000000
       127    2  -2.000000       -1.141000000000       1.376000000000     -19.177000000000
       128    2  -2.000000       -0.621000000000       3.237000000000     -20.978000000000
       129    2  -2.000000       -3.114000000000       3.833000000000     -20.461000000000
       130    2  -2.000000       -3.634000000000       5.694000000000     -18.660000000000
       131    2  -2.000000       -1.762000000000       5.213000000000     -16.858000000000
       132    1  -4.000000        1.999000000000      -1.154000000000     -18.017000000000
       133    1  -4.000000        0.000000000000       2.309000000000     -19.819000000000
       134    1  -4.000000        2.256000000000       1.302000000000     -21.621000000000
       135    2  -2.000000        1.762000000000       0.300000000000     -17.375000000000
       136    2  -2.000000        3.114000000000      -1.081000000000     -19.177000000000
       137    2  -2.000000        3.634000000000       0.781000000000     -20.978000000000
       138    2  -2.000000        1.141000000000       1.376000000000     -20.461000000000
       139    2  -2.000000        0.621000000000       3.237000000000     -18.660000000000
       140    2  -2.000000        2.493000000000       2.757000000000     -16.858000000000
       141    1  -4.000000        6.254000000000      -3.611000000000     -18.017000000000
       142    1  -4.000000        4.255000000000      -0.148000000000     -19.819000000000
       143    2  -2.000000        6.017000000000      -2.157000000000     -17.375000000000
       144    2  -2.000000        7.369000000000      -3.537000000000     -19.177000000000
       145    2  -2.000000        5.396000000000      -1.081000000000     -20.461000000000
       146    2  -2.000000        4.876000000000       0.781000000000     -18.660000000000
       147    2  -2.000000        6.748000000000       0.300000000000     -16.858000000000
       148    2  -2.000000       10.272000000000      -4.613000000000     -17.375000000000
       149    2  -2.000000        9.132000000000      -1.676000000000     -18.660000000000
       150    2  -2.000000       11.003000000000      -2.157000000000     -16.858000000000
       151    1  -4.000000       -6.511000000000       8.672000000000     -18.017000000000
       152    2  -2.000000       -6.748000000000      10.127000000000     -17.375000000000
       153    2  -2.000000       -5.396000000000       8.746000000000     -19.177000000000
       154    1  -4.000000       -2.256000000000       6.216000000000     -18.017000000000
       155    2  -2.000000       -2.493000000000       7.670000000000     -17.375000000000
       156    2  -2.000000       -1.141000000000       6.289000000000     -19.177000000000
       157    2  -2.000000       -3.634000000000      10.608000000000     -18.660000000000
       158    2  -2.000000       -1.762000000000      10.127000000000     -16.858000000000
       159    1  -4.000000        1.999000000000       3.759000000000     -18.017000000000
       160    1  -4.000000        0.000000000000       7.222000000000     -19.819000000000
       161    2  -2.000000        1.762000000000       5.213000000000     -17.375000000000
       162    2  -2.000000        3.114000000000       3.833000000000     -19.177000000000
       163    2  -2.000000        1.141000000000       6.289000000000     -20.461000000000
       164    2  -2.000000        0.621000000000       8.151000000000     -18.660000000000
       165    2  -2.000000        2.493000000000       7.670000000000     -16.858000000000
       166    1  -4.000000        6.254000000000       1.302000000000     -18.017000000000
       167    1  -4.000000        4.255000000000       4.765000000000     -19.819000000000
       168    2  -2.000000        6.017000000000       2.757000000000     -17.375000000000
       169    2  -2.000000        7.369000000000       1.376000000000     -19.177000000000
       170    2  -2.000000        5.396000000000       3.833000000000     -20.461000000000
       171    2  -2.000000        4.876000000000       5.694000000000     -18.660000000000
       172    2  -2.000000        6.748000000000       5.213000000000     -16.858000000000
       173    1  -4.000000       10.510000000000      -1.154000000000     -18.017000000000
       174    2  -2.000000       10.272000000000       0.300000000000     -17.375000000000
       175    2  -2.000000       11.003000000000       2.757000000000     -16.858000000000
       176    1  -4.000000       -2.256000000000      11.129000000000     -18.017000000000
       177    1  -4.000000        1.999000000000       8.672000000000     -18.017000000000
       178    2  -2.000000        1.762000000000      10.127000000000     -17.375000000000
       179    2  -2.000000        3.114000000000       8.746000000000     -19.177000000000
       180    1  -4.000000        6.254000000000       6.216000000000     -18.017000000000
       181    2  -2.000000        6.017000000000       7.670000000000     -17.375000000000
       182    2  -2.000000      -14.527000000000     -11.984000000000     -11.453000000000
       183    2  -2.000000      -12.144000000000     -13.959000000000     -13.254000000000
       184    2  -2.000000      -10.272000000000     -14.440000000000     -11.453000000000
       185    2  -2.000000       -7.889000000000     -16.416000000000     -13.254000000000
       186    2  -2.000000       -6.017000000000     -16.897000000000     -11.453000000000
       187    2  -2.000000      -18.783000000000      -4.613000000000     -11.453000000000
       188    1  -4.000000      -15.021000000000     -10.981000000000     -12.612000000000
       189    1  -4.000000      -17.021000000000      -7.518000000000     -14.414000000000
       190    1  -4.000000      -14.765000000000      -8.524000000000     -16.216000000000
       191    2  -2.000000      -15.258000000000      -9.527000000000     -11.970000000000
       192    2  -2.000000      -13.906000000000     -10.908000000000     -13.772000000000
       193    2  -2.000000      -13.387000000000      -9.046000000000     -15.573000000000
       194    2  -2.000000      -15.880000000000      -8.451000000000     -15.056000000000
       195    2  -2.000000      -16.399000000000      -6.589000000000     -13.254000000000
       196    2  -2.000000      -14.527000000000      -7.070000000000     -11.453000000000
       197    1  -4.000000      -10.766000000000     -13.438000000000     -12.612000000000
       198    1  -4.000000      -12.765000000000      -9.975000000000     -14.414000000000
       199    1  -4.000000      -10.510000000000     -10.981000000000     -16.216000000000
       200    2  -2.000000      -11.003000000000     -11.984000000000     -11.970000000000
       201    2  -2.000000       -9.651000000000     -13.364000000000     -13.772000000000
       202    2  -2.000000       -9.132000000000     -11.503000000000     -15.573000000000
       203    2  -2.000000      -11.625000000000     -10.908000000000     -15.056000000000
       204    2  -2.000000      -12.144000000000      -9.046000000000     -13.254000000000
       205    2  -2.000000      -10.272000000000      -9.527000000000     -11.453000000000
       206    1  -4.000000       -6.511000000000     -15.895000000000     -12.612000000000
       207    1  -4.000000       -8.510000000000     -12.432000000000     -14.414000000000
       208    1  -4.000000       -6.254000000000     -13.438000000000     -16.216000000000
       209    2  -2.000000       -6.748000000000     -14.440000000000     -11.970000000000
       210    2  -2.000000       -5.396000000000     -15.821000000000     -13.772000000000
       211    2  -2.000000       -4.876000000000     -13.959000000000     -15.573000000000
       212    2  -2.000000       -7.369000000000     -13.364000000000     -15.056000000000
       213    2  -2.000000       -7.889000000000     -11.503000000000     -13.254000000000
       214    2  -2.000000       -6.017000000000     -11.984000000000     -11.453000000000
       215    1  -4.000000       -2.256000000000     -18.351000000000     -12.612000000000
       216    1  -4.000000       -4.255000000000     -14.888000000000     -14.414000000000
       217    1  -4.000000       -1.999000000000     -15.895000000000     -16.216000000000
       218    2  -2.000000       -2.493000000000     -16.897000000000     -11.970000000000
       219    2  -2.000000       -0.621000000000     -16.416000000000     -15.573000000000
       220    2  -2.000000       -3.114000000000     -15.821000000000     -15.056000000000
       221    2  -2.000000       -3.634000000000     -13.959000000000     -13.254000000000
       222    2  -2.000000       -1.762000000000     -14.440000000000     -11.453000000000
       223    2  -2.000000        0.621000000000     -16.416000000000     -13.254000000000
       224    2  -2.000000        2.493000000000     -16.897000000000     -11.453000000000
       225    1  -4.000000      -19.276000000000      -3.611000000000     -12.612000000000
       226    2  -2.000000      -19.514000000000      -2.157000000000     -11.970000000000
       227    2  -2.000000      -18.161000000000      -3.537000000000     -13.772000000000
       228    2  -2.000000      -18.783000000000       0.300000000000     -11.453000000000
       229    1  -4.000000      -15.021000000000      -6.068000000000     -12.612000000000
       230    1  -4.000000      -17.021000000000      -2.605000000000     -14.414000000000
       231    1  -4.000000      -14.765000000000      -3.611000000000     -16.216000000000
       232    2  -2.000000      -15.258000000000      -4.613000000000     -11.970000000000
       233    2  -2.000000      -13.906000000000      -5.994000000000     -13.772000000000
       234    2  -2.000000      -13.387000000000      -4.133000000000     -15.573000000000
       235    2  -2.000000      -15.880000000000      -3.537000000000     -15.056000000000
       236    2  -2.000000      -16.399000000000      -1.676000000000     -13.254000000000
       237    2  -2.000000      -14.527000000000      -2.157000000000     -11.453000000000
       238    1  -4.000000      -10.766000000000      -8.524000000000     -12.612000000000
       239    1  -4.000000      -12.765000000000      -5.061000000000     -14.414000000000
       240    1  -4.000000      -10.510000000000      -6.068000000000     -16.216000000000
       241    2  -2.000000      -11.003000000000      -7.070000000000     -11.970000000000
       242    2  -2.000000       -9.651000000000      -8.451000000000     -13.772000000000
       243    2  -2.000000       -9.132000000000      -6.589000000000     -15.573000000000
       244    2  -2.000000      -11.625000000000      -5.994000000000     -15.056000000000
       245    2  -2.000000      -12.144000000000      -4.133000000000     -13.254000000000
       246    2  -2.000000      -10.272000000000      -4.613000000000     -11.453000000000
       247    1  -4.000000       -6.511000000000     -10.981000000000     -12.612000000000
       248    1  -4.000000       -8.510000000000      -7.518000000000     -14.414000000000
       249    1  -4.000000       -6.254000000000      -8.524000000000     -16.216000000000
       250    2  -2.000000       -6.748000000000      -9.527000000000     -11.970000000000
       251    2  -2.000000       -5.396000000000     -10.908000000000     -13.772000000000
       252    2  -2.000000       -4.876000000000      -9.046000000000     -15.573000000000
       253    2  -2.000000       -7.369000000000      -8.451000000000     -15.056000000000
       254    2  -2.000000       -7.889000000000      -6.589000000000     -13.254000000000
       255    2  -2.000000       -6.017000000000      -7.070000000000     -11.453000000000
       256    1  -4.000000       -2.256000000000     -13.438000000000     -12.612000000000
       257    1  -4.000000       -4.255000000000      -9.975000000000     -14.414000000000
       258    1  -4.000000       -1.999000000000     -10.981000000000     -16.216000000000
       259    2  -2.000000       -2.493000000000     -11.984000000000     -11.970000000000
       260    2  -2.000000       -1.141000000000     -13.364000000000     -13.772000000000
       261    2  -2.000000       -0.621000000000     -11.503000000000     -15.573000000000
       262    2  -2.000000       -3.114000000000     -10.908000000000     -15.056000000000
       263    2  -2.000000       -3.634000000000      -9.046000000000     -13.254000000000
       264    2  -2.000000       -1.762000000000      -9.527000000000     -11.453000000000
       265    1  -4.000000        1.999000000000     -15.895000000000     -12.612000000000
       266    1  -4.000000        0.000000000000     -12.432000000000     -14.414000000000
       267    1  -4.000000        2.256000000000     -13.438000000000     -16.216000000000
       268    2  -2.000000        1.762000000000     -14.440000000000     -11.970000000000
       269    2  -2.000000        3.114000000000     -15.821000000000     -13.772000000000
       270    2  -2.000000        3.634000000000     -13.959000000000     -15.573000000000
       271    2  -2.000000        1.141000000000     -13.364000000000     -15.056000000000
       272    2  -2.000000        0.621000000000     -11.503000000000     -13.254000000000
       273    2  -2.000000        2.493000000000     -11.984000000000     -11.453000000000
       274    1  -4.000000        4.255000000000     -14.888000000000     -14.414000000000
       275    2  -2.000000        6.017000000000     -16.897000000000     -11.970000000000
       276    2  -2.000000        4.876000000000     -13.959000000000     -13.254000000000
       277    2  -2.000000        6.748000000000     -14.440000000000     -11.453000000000
       278    1  -4.000000      -19.276000000000       1.302000000000     -12.612000000000
       279    2  -2.000000      -18.161000000000       1.376000000000     -13.772000000000
       280    2  -2.000000      -18.783000000000       5.213000000000     -11.453000000000
       281    1  -4.000000      -15.021000000000      -1.154000000000     -12.612000000000
       282    1  -4.000000      -17.021000000000       2.309000000000     -14.414000000000
       283    1  -4.000000      -14.765000000000       1.302000000000     -16.216000000000
       284    2  -2.000000      -15.258000000000       0.300000000000     -11.970000000000
       285    2  -2.000000      -13.906000000000      -1.081000000000     -13.772000000000
       286    2  -2.000000      -13.387000000000       0.781000000000     -15.573000000000
       287    2  -2.000000      -15.880000000000       1.376000000000     -15.056000000000
       288    2  -2.000000      -16.399000000000       3.237000000000     -13.254000000000
       289    2  -2.000000      -14.527000000000       2.757000000000     -11.453000000000
       290    1  -4.000000      -10.766000000000      -3.611000000000     -12.612000000000
       291    1  -4.000000      -12.765000000000      -0.148000000000     -14.414000000000
       292    1  -4.000000      -10.510000000000      -1.154000000000     -16.216000000000
       293    2  -2.000000      -11.003000000000      -2.157000000000     -11.970000000000
       294    2  -2.000000       -9.651000000000      -3.537000000000     -13.772000000000
       295    2  -2.000000       -9.132000000000      -1.676000000000     -15.573000000000
       296    2  -2.000000      -11.625000000000      -1.081000000000     -15.056000000000
       297    2  -2.000000      -12.144000000000       0.781000000000     -13.254000000000
       298    2  -2.000000      -10.272000000000       0.300000000000     -11.453000000000
       299    1  -4.000000       -6.511000000000      -6.068000000000     -12.612000000000
       300    1  -4.000000       -8.510000000000      -2.605000000000     -14.414000000000
       301    1  -4.000000       -6.254000000000      -3.611000000000     -16.216000000000
       302    2  -2.000000       -6.748000000000      -4.613000000000     -11.970000000000
       303    2  -2.000000       -5.396000000000      -5.994000000000     -13.772000000000
       304    2  -2.000000       -4.876000000000      -4.133000000000     -15.573000000000
       305    2  -2.000000       -7.369000000000      -3.537000000000     -15.056000000000
       306    2  -2.000000       -7.889000000000      -1.676000000000     -13.254000000000
       307    2  -2.000000       -6.017000000000      -2.157000000000     -11.453000000000
       308    1  -4.000000       -2.256000000000      -8.524000000000     -12.612000000000
       309    1  -4.000000       -4.255000000000      -5.061000000000     -14.414000000000
       310    1  -4.000000       -1.999000000000      -6.068000000000     -16.216000000000
       311    2  -2.000000       -2.493000000000      -7.070000000000     -11.970000000000
       312    2  -2.000000       -1.141000000000      -8.451000000000     -13.772000000000
       313    2  -2.000000       -0.621000000000      -6.589000000000     -15.573000000000
       314    2  -2.000000       -3.114000000000      -5.994000000000     -15.056000000000
       315    2  -2.000000       -3.634000000000      -4.133000000000     -13.254000000000
       316    2  -2.000000       -1.762000000000      -4.613000000000     -11.453000000000
       317    1  -4.000000        1.999000000000     -10.981000000000     -12.612000000000
       318    1  -4.000000        0.000000000000      -7.518000000000     -14.414000000000
       319    1  -4.000000        2.256000000000      -8.524000000000     -16.216000000000
       320    2  -2.000000        1.762000000000      -9.527000000000     -11.970000000000
       321    2  -2.000000        3.114000000000     -10.908000000000     -13.772000000000
       322    2  -2.000000        3.634000000000      -9.046000000000     -15.573000000000
       323    2  -2.000000        1.141000000000      -8.451000000000     -15.056000000000
       324    2  -2.000000        0.621000000000      -6.589000000000     -13.254000000000
       325    2  -2.000000        2.493000000000      -7.070000000000     -11.453000000000