 # REMARK   Materials Studio PDB file
 
           2  atoms
           2  atom types
 
      0.000000000000       4.913000000000  xlo xhi
      0.000000000000       4.254782808793  ylo yhi
      0.000000000000       5.405000000000  zlo zhi
     -2.456500000000       0.000000000000       0.000000000000  xy xz yz
 
Masses
 
            1   15.99900000             # O
            2   28.08500000             # Si
 
Atoms # charge
 
         1    1   0.000000        1.376000000000       1.141000000000       4.246000000000
         2    2   0.000000        2.309000000000       0.000000000000       3.603000000000
