ITEM: TIMESTEP
0
ITEM: NUMBER OF ATOMS
500
ITEM: BOX BOUNDS pp pp pp
0.0000000000000000e+00 1.8050000000000001e+01
0.0000000000000000e+00 1.8050000000000001e+01
0.0000000000000000e+00 1.8050000000000001e+01
ITEM: ATOMS id type xs ys zs
1 1 0 0 0
2 1 0.1 0.1 0
3 1 0.1 0 0.1
4 1 0 0.1 0.1
5 1 0.2 0 0
8 1 0.2 0.1 0.1
21 1 0 0.2 0
23 1 0.1 0.2 0.1
25 1 0.2 0.2 0
101 1 0 0 0.2
102 1 0.1 0.1 0.2
105 1 0.2 0 0.2
121 1 0 0.2 0.2
125 1 0.2 0.2 0.2
6 1 0.3 0.1 0
7 1 0.3 0 0.1
9 1 0.4 0 0
12 1 0.4 0.1 0.1
27 1 0.3 0.2 0.1
29 1 0.4 0.2 0
106 1 0.3 0.1 0.2
109 1 0.4 0 0.2
129 1 0.4 0.2 0.2
10 1 0.5 0.1 0
11 1 0.5 0 0.1
13 1 0.6 0 0
16 1 0.6 0.1 0.1
31 1 0.5 0.2 0.1
33 1 0.6 0.2 0
110 1 0.5 0.1 0.2
113 1 0.6 0 0.2
133 1 0.6 0.2 0.2
14 1 0.7 0.1 0
15 1 0.7 0 0.1
17 1 0.8 0 0
20 1 0.8 0.1 0.1
35 1 0.7 0.2 0.1
37 1 0.8 0.2 0
114 1 0.7 0.1 0.2
117 1 0.8 0 0.2
137 1 0.8 0.2 0.2
18 1 0.9 0.1 0
19 1 0.9 0 0.1
39 1 0.9 0.2 0.1
118 1 0.9 0.1 0.2
22 1 0.1 0.3 0
24 1 0 0.3 0.1
28 1 0.2 0.3 0.1
41 1 0 0.4 0
43 1 0.1 0.4 0.1
45 1 0.2 0.4 0
122 1 0.1 0.3 0.2
141 1 0 0.4 0.2
145 1 0.2 0.4 0.2
26 1 0.3 0.3 0
32 1 0.4 0.3 0.1
47 1 0.3 0.4 0.1
49 1 0.4 0.4 0
126 1 0.3 0.3 0.2
149 1 0.4 0.4 0.2
30 1 0.5 0.3 0
36 1 0.6 0.3 0.1
51 1 0.5 0.4 0.1
53 1 0.6 0.4 0
130 1 0.5 0.3 0.2
153 1 0.6 0.4 0.2
34 1 0.7 0.3 0
40 1 0.8 0.3 0.1
55 1 0.7 0.4 0.1
57 1 0.8 0.4 0
134 1 0.7 0.3 0.2
157 1 0.8 0.4 0.2
38 1 0.9 0.3 0
59 1 0.9 0.4 0.1
138 1 0.9 0.3 0.2
42 1 0.1 0.5 0
44 1 0 0.5 0.1
48 1 0.2 0.5 0.1
61 1 0 0.6 0
63 1 0.1 0.6 0.1
65 1 0.2 0.6 0
142 1 0.1 0.5 0.2
161 1 0 0.6 0.2
165 1 0.2 0.6 0.2
46 1 0.3 0.5 0
52 1 0.4 0.5 0.1
67 1 0.3 0.6 0.1
69 1 0.4 0.6 0
146 1 0.3 0.5 0.2
169 1 0.4 0.6 0.2
50 1 0.5 0.5 0
56 1 0.6 0.5 0.1
71 1 0.5 0.6 0.1
73 1 0.6 0.6 0
150 1 0.5 0.5 0.2
173 1 0.6 0.6 0.2
54 1 0.7 0.5 0
60 1 0.8 0.5 0.1
75 1 0.7 0.6 0.1
77 1 0.8 0.6 0
154 1 0.7 0.5 0.2
177 1 0.8 0.6 0.2
58 1 0.9 0.5 0
79 1 0.9 0.6 0.1
158 1 0.9 0.5 0.2
62 1 0.1 0.7 0
64 1 0 0.7 0.1
68 1 0.2 0.7 0.1
81 1 0 0.8 0
83 1 0.1 0.8 0.1
85 1 0.2 0.8 0
162 1 0.1 0.7 0.2
181 1 0 0.8 0.2
185 1 0.2 0.8 0.2
66 1 0.3 0.7 0
72 1 0.4 0.7 0.1
87 1 0.3 0.8 0.1
89 1 0.4 0.8 0
166 1 0.3 0.7 0.2
189 1 0.4 0.8 0.2
70 1 0.5 0.7 0
76 1 0.6 0.7 0.1
91 1 0.5 0.8 0.1
93 1 0.6 0.8 0
170 1 0.5 0.7 0.2
193 1 0.6 0.8 0.2
74 1 0.7 0.7 0
80 1 0.8 0.7 0.1
95 1 0.7 0.8 0.1
97 1 0.8 0.8 0
174 1 0.7 0.7 0.2
197 1 0.8 0.8 0.2
78 1 0.9 0.7 0
99 1 0.9 0.8 0.1
178 1 0.9 0.7 0.2
82 1 0.1 0.9 0
84 1 0 0.9 0.1
88 1 0.2 0.9 0.1
182 1 0.1 0.9 0.2
86 1 0.3 0.9 0
92 1 0.4 0.9 0.1
186 1 0.3 0.9 0.2
90 1 0.5 0.9 0
96 1 0.6 0.9 0.1
190 1 0.5 0.9 0.2
94 1 0.7 0.9 0
100 1 0.8 0.9 0.1
194 1 0.7 0.9 0.2
98 1 0.9 0.9 0
198 1 0.9 0.9 0.2
103 1 0.1 0 0.3
104 1 0 0.1 0.3
108 1 0.2 0.1 0.3
123 1 0.1 0.2 0.3
201 1 0 0 0.4
202 1 0.1 0.1 0.4
205 1 0.2 0 0.4
221 1 0 0.2 0.4
225 1 0.2 0.2 0.4
107 1 0.3 0 0.3
112 1 0.4 0.1 0.3
127 1 0.3 0.2 0.3
206 1 0.3 0.1 0.4
209 1 0.4 0 0.4
229 1 0.4 0.2 0.4
111 1 0.5 0 0.3
116 1 0.6 0.1 0.3
131 1 0.5 0.2 0.3
210 1 0.5 0.1 0.4
213 1 0.6 0 0.4
233 1 0.6 0.2 0.4
115 1 0.7 0 0.3
120 1 0.8 0.1 0.3
135 1 0.7 0.2 0.3
214 1 0.7 0.1 0.4
217 1 0.8 0 0.4
237 1 0.8 0.2 0.4
119 1 0.9 0 0.3
139 1 0.9 0.2 0.3
218 1 0.9 0.1 0.4
124 1 0 0.3 0.3
128 1 0.2 0.3 0.3
143 1 0.1 0.4 0.3
222 1 0.1 0.3 0.4
241 1 0 0.4 0.4
245 1 0.2 0.4 0.4
132 1 0.4 0.3 0.3
147 1 0.3 0.4 0.3
226 1 0.3 0.3 0.4
249 1 0.4 0.4 0.4
136 1 0.6 0.3 0.3
151 1 0.5 0.4 0.3
230 1 0.5 0.3 0.4
253 1 0.6 0.4 0.4
140 1 0.8 0.3 0.3
155 1 0.7 0.4 0.3
234 1 0.7 0.3 0.4
257 1 0.8 0.4 0.4
159 1 0.9 0.4 0.3
238 1 0.9 0.3 0.4
144 1 0 0.5 0.3
148 1 0.2 0.5 0.3
163 1 0.1 0.6 0.3
242 1 0.1 0.5 0.4
261 1 0 0.6 0.4
265 1 0.2 0.6 0.4
152 1 0.4 0.5 0.3
167 1 0.3 0.6 0.3
246 1 0.3 0.5 0.4
269 1 0.4 0.6 0.4
156 1 0.6 0.5 0.3
171 1 0.5 0.6 0.3
250 1 0.5 0.5 0.4
273 1 0.6 0.6 0.4
160 1 0.8 0.5 0.3
175 1 0.7 0.6 0.3
254 1 0.7 0.5 0.4
277 1 0.8 0.6 0.4
179 1 0.9 0.6 0.3
258 1 0.9 0.5 0.4
164 1 0 0.7 0.3
168 1 0.2 0.7 0.3
183 1 0.1 0.8 0.3
262 1 0.1 0.7 0.4
281 1 0 0.8 0.4
285 1 0.2 0.8 0.4
172 1 0.4 0.7 0.3
187 1 0.3 0.8 0.3
266 1 0.3 0.7 0.4
289 1 0.4 0.8 0.4
176 1 0.6 0.7 0.3
191 1 0.5 0.8 0.3
270 1 0.5 0.7 0.4
293 1 0.6 0.8 0.4
180 1 0.8 0.7 0.3
195 1 0.7 0.8 0.3
274 1 0.7 0.7 0.4
297 1 0.8 0.8 0.4
199 1 0.9 0.8 0.3
278 1 0.9 0.7 0.4
184 1 0 0.9 0.3
188 1 0.2 0.9 0.3
282 1 0.1 0.9 0.4
192 1 0.4 0.9 0.3
286 1 0.3 0.9 0.4
196 1 0.6 0.9 0.3
290 1 0.5 0.9 0.4
200 1 0.8 0.9 0.3
294 1 0.7 0.9 0.4
298 1 0.9 0.9 0.4
203 1 0.1 0 0.5
204 1 0 0.1 0.5
208 1 0.2 0.1 0.5
223 1 0.1 0.2 0.5
301 1 0 0 0.6
302 1 0.1 0.1 0.6
305 1 0.2 0 0.6
321 1 0 0.2 0.6
325 1 0.2 0.2 0.6
207 1 0.3 0 0.5
212 1 0.4 0.1 0.5
227 1 0.3 0.2 0.5
306 1 0.3 0.1 0.6
309 1 0.4 0 0.6
329 1 0.4 0.2 0.6
211 1 0.5 0 0.5
216 1 0.6 0.1 0.5
231 1 0.5 0.2 0.5
310 1 0.5 0.1 0.6
313 1 0.6 0 0.6
333 1 0.6 0.2 0.6
215 1 0.7 0 0.5
220 1 0.8 0.1 0.5
235 1 0.7 0.2 0.5
314 1 0.7 0.1 0.6
317 1 0.8 0 0.6
337 1 0.8 0.2 0.6
219 1 0.9 0 0.5
239 1 0.9 0.2 0.5
318 1 0.9 0.1 0.6
224 1 0 0.3 0.5
228 1 0.2 0.3 0.5
243 1 0.1 0.4 0.5
322 1 0.1 0.3 0.6
341 1 0 0.4 0.6
345 1 0.2 0.4 0.6
232 1 0.4 0.3 0.5
247 1 0.3 0.4 0.5
326 1 0.3 0.3 0.6
349 1 0.4 0.4 0.6
236 1 0.6 0.3 0.5
251 1 0.5 0.4 0.5
330 1 0.5 0.3 0.6
353 1 0.6 0.4 0.6
240 1 0.8 0.3 0.5
255 1 0.7 0.4 0.5
334 1 0.7 0.3 0.6
357 1 0.8 0.4 0.6
259 1 0.9 0.4 0.5
338 1 0.9 0.3 0.6
244 1 0 0.5 0.5
248 1 0.2 0.5 0.5
263 1 0.1 0.6 0.5
342 1 0.1 0.5 0.6
361 1 0 0.6 0.6
365 1 0.2 0.6 0.6
252 1 0.4 0.5 0.5
267 1 0.3 0.6 0.5
346 1 0.3 0.5 0.6
369 1 0.4 0.6 0.6
256 1 0.6 0.5 0.5
271 1 0.5 0.6 0.5
350 1 0.5 0.5 0.6
373 1 0.6 0.6 0.6
260 1 0.8 0.5 0.5
275 1 0.7 0.6 0.5
354 1 0.7 0.5 0.6
377 1 0.8 0.6 0.6
279 1 0.9 0.6 0.5
358 1 0.9 0.5 0.6
264 1 0 0.7 0.5
268 1 0.2 0.7 0.5
283 1 0.1 0.8 0.5
362 1 0.1 0.7 0.6
381 1 0 0.8 0.6
385 1 0.2 0.8 0.6
272 1 0.4 0.7 0.5
287 1 0.3 0.8 0.5
366 1 0.3 0.7 0.6
389 1 0.4 0.8 0.6
276 1 0.6 0.7 0.5
291 1 0.5 0.8 0.5
370 1 0.5 0.7 0.6
393 1 0.6 0.8 0.6
280 1 0.8 0.7 0.5
295 1 0.7 0.8 0.5
374 1 0.7 0.7 0.6
397 1 0.8 0.8 0.6
299 1 0.9 0.8 0.5
378 1 0.9 0.7 0.6
284 1 0 0.9 0.5
288 1 0.2 0.9 0.5
382 1 0.1 0.9 0.6
292 1 0.4 0.9 0.5
386 1 0.3 0.9 0.6
296 1 0.6 0.9 0.5
390 1 0.5 0.9 0.6
300 1 0.8 0.9 0.5
394 1 0.7 0.9 0.6
398 1 0.9 0.9 0.6
303 1 0.1 0 0.7
304 1 0 0.1 0.7
308 1 0.2 0.1 0.7
323 1 0.1 0.2 0.7
401 1 0 0 0.8
402 1 0.1 0.1 0.8
405 1 0.2 0 0.8
421 1 0 0.2 0.8
425 1 0.2 0.2 0.8
307 1 0.3 0 0.7
312 1 0.4 0.1 0.7
327 1 0.3 0.2 0.7
406 1 0.3 0.1 0.8
409 1 0.4 0 0.8
429 1 0.4 0.2 0.8
311 1 0.5 0 0.7
316 1 0.6 0.1 0.7
331 1 0.5 0.2 0.7
410 1 0.5 0.1 0.8
413 1 0.6 0 0.8
433 1 0.6 0.2 0.8
315 1 0.7 0 0.7
320 1 0.8 0.1 0.7
335 1 0.7 0.2 0.7
414 1 0.7 0.1 0.8
417 1 0.8 0 0.8
437 1 0.8 0.2 0.8
319 1 0.9 0 0.7
339 1 0.9 0.2 0.7
418 1 0.9 0.1 0.8
324 1 0 0.3 0.7
328 1 0.2 0.3 0.7
343 1 0.1 0.4 0.7
422 1 0.1 0.3 0.8
441 1 0 0.4 0.8
445 1 0.2 0.4 0.8
332 1 0.4 0.3 0.7
347 1 0.3 0.4 0.7
426 1 0.3 0.3 0.8
449 1 0.4 0.4 0.8
336 1 0.6 0.3 0.7
351 1 0.5 0.4 0.7
430 1 0.5 0.3 0.8
453 1 0.6 0.4 0.8
340 1 0.8 0.3 0.7
355 1 0.7 0.4 0.7
434 1 0.7 0.3 0.8
457 1 0.8 0.4 0.8
359 1 0.9 0.4 0.7
438 1 0.9 0.3 0.8
344 1 0 0.5 0.7
348 1 0.2 0.5 0.7
363 1 0.1 0.6 0.7
442 1 0.1 0.5 0.8
461 1 0 0.6 0.8
465 1 0.2 0.6 0.8
352 1 0.4 0.5 0.7
367 1 0.3 0.6 0.7
446 1 0.3 0.5 0.8
469 1 0.4 0.6 0.8
356 1 0.6 0.5 0.7
371 1 0.5 0.6 0.7
450 1 0.5 0.5 0.8
473 1 0.6 0.6 0.8
360 1 0.8 0.5 0.7
375 1 0.7 0.6 0.7
454 1 0.7 0.5 0.8
477 1 0.8 0.6 0.8
379 1 0.9 0.6 0.7
458 1 0.9 0.5 0.8
364 1 0 0.7 0.7
368 1 0.2 0.7 0.7
383 1 0.1 0.8 0.7
462 1 0.1 0.7 0.8
481 1 0 0.8 0.8
485 1 0.2 0.8 0.8
372 1 0.4 0.7 0.7
387 1 0.3 0.8 0.7
466 1 0.3 0.7 0.8
489 1 0.4 0.8 0.8
376 1 0.6 0.7 0.7
391 1 0.5 0.8 0.7
470 1 0.5 0.7 0.8
493 1 0.6 0.8 0.8
380 1 0.8 0.7 0.7
395 1 0.7 0.8 0.7
474 1 0.7 0.7 0.8
497 1 0.8 0.8 0.8
399 1 0.9 0.8 0.7
478 1 0.9 0.7 0.8
384 1 0 0.9 0.7
388 1 0.2 0.9 0.7
482 1 0.1 0.9 0.8
392 1 0.4 0.9 0.7
486 1 0.3 0.9 0.8
396 1 0.6 0.9 0.7
490 1 0.5 0.9 0.8
400 1 0.8 0.9 0.7
494 1 0.7 0.9 0.8
498 1 0.9 0.9 0.8
403 1 0.1 0 0.9
404 1 0 0.1 0.9
408 1 0.2 0.1 0.9
423 1 0.1 0.2 0.9
407 1 0.3 0 0.9
412 1 0.4 0.1 0.9
427 1 0.3 0.2 0.9
411 1 0.5 0 0.9
416 1 0.6 0.1 0.9
431 1 0.5 0.2 0.9
415 1 0.7 0 0.9
420 1 0.8 0.1 0.9
435 1 0.7 0.2 0.9
419 1 0.9 0 0.9
439 1 0.9 0.2 0.9
424 1 0 0.3 0.9
428 1 0.2 0.3 0.9
443 1 0.1 0.4 0.9
432 1 0.4 0.3 0.9
447 1 0.3 0.4 0.9
436 1 0.6 0.3 0.9
451 1 0.5 0.4 0.9
440 1 0.8 0.3 0.9
455 1 0.7 0.4 0.9
459 1 0.9 0.4 0.9
444 1 0 0.5 0.9
448 1 0.2 0.5 0.9
463 1 0.1 0.6 0.9
452 1 0.4 0.5 0.9
467 1 0.3 0.6 0.9
456 1 0.6 0.5 0.9
471 1 0.5 0.6 0.9
460 1 0.8 0.5 0.9
475 1 0.7 0.6 0.9
479 1 0.9 0.6 0.9
464 1 0 0.7 0.9
468 1 0.2 0.7 0.9
483 1 0.1 0.8 0.9
472 1 0.4 0.7 0.9
487 1 0.3 0.8 0.9
476 1 0.6 0.7 0.9
491 1 0.5 0.8 0.9
480 1 0.8 0.7 0.9
495 1 0.7 0.8 0.9
499 1 0.9 0.8 0.9
484 1 0 0.9 0.9
488 1 0.2 0.9 0.9
492 1 0.4 0.9 0.9
496 1 0.6 0.9 0.9
500 1 0.8 0.9 0.9
ITEM: TIMESTEP
1000
ITEM: NUMBER OF ATOMS
500
ITEM: BOX BOUNDS pp pp pp
0.0000000000000000e+00 1.8050000000000001e+01
0.0000000000000000e+00 1.8050000000000001e+01
0.0000000000000000e+00 1.8050000000000001e+01
ITEM: ATOMS id type xs ys zs
1 1 -0.00179953 0.00373892 -0.00602689
2 1 0.0974624 0.0981519 -0.00215756
3 1 0.10632 0.00063335 0.100928
4 1 -0.000800713 0.089411 0.101675
5 1 0.199026 -0.00884438 0.00711469
8 1 0.192431 0.0962774 0.0953882
21 1 -0.00614057 0.1874 -0.0133915
23 1 0.0890791 0.192452 0.0993335
25 1 0.191089 0.19811 0.00693004
101 1 -0.00369728 -0.003872 0.210783
102 1 0.102781 0.0981231 0.206357
105 1 0.199066 0.00318811 0.195846
121 1 -0.0039452 0.191972 0.192173
125 1 0.199112 0.199835 0.196128
6 1 0.302423 0.10006 -0.00254003
7 1 0.299678 0.0111701 0.0989679
9 1 0.395847 -0.00535457 -0.00397707
12 1 0.398171 0.0996386 0.0865281
27 1 0.296119 0.201005 0.0922583
29 1 0.40233 0.196691 -0.00115899
106 1 0.296071 0.104625 0.189671
109 1 0.406268 0.0082142 0.193175
129 1 0.390653 0.205002 0.19174
10 1 0.511775 0.0916042 0.00398537
11 1 0.494612 -0.00741542 0.0946565
13 1 0.601152 -0.00532021 -0.00124952
16 1 0.603861 0.091084 0.0996102
31 1 0.497178 0.200917 0.101094
33 1 0.596851 0.202652 0.00655483
110 1 0.499506 0.101908 0.200237
113 1 0.589354 -0.00464498 0.20727
133 1 0.595574 0.19942 0.193839
14 1 0.703635 0.0990109 -0.0130963
15 1 0.698563 -0.00297757 0.102751
17 1 0.794265 -0.0106585 -0.00487404
20 1 0.786736 0.0910982 0.0924981
35 1 0.693952 0.186543 0.0938256
37 1 0.801646 0.200917 -0.0140304
114 1 0.692359 0.093515 0.208427
117 1 0.794287 -0.000196559 0.204671
137 1 0.7981 0.193198 0.194884
18 1 0.891675 0.0888499 -0.00287683
19 1 0.906416 -0.00474614 0.102834
39 1 0.899898 0.186205 0.0889566
118 1 0.888798 0.0945182 0.206113
22 1 0.0993945 0.310609 -0.0122908
24 1 0.0172327 0.299949 0.0894079
28 1 0.197798 0.29837 0.0966482
41 1 0.00454423 0.409249 -0.00413021
43 1 0.0991453 0.401462 0.103688
45 1 0.200693 0.412477 -0.0101267
122 1 0.100082 0.298076 0.186435
141 1 -0.000807421 0.398553 0.199718
145 1 0.203665 0.402247 0.198145
26 1 0.297369 0.297108 0.00401116
32 1 0.395695 0.299608 0.099101
47 1 0.298311 0.395303 0.0928852
49 1 0.401351 0.40108 -0.00344229
126 1 0.302252 0.299534 0.205452
149 1 0.399616 0.399162 0.203299
30 1 0.488675 0.29257 -0.0102025
36 1 0.593095 0.296033 0.0965973
51 1 0.495539 0.396179 0.103019
53 1 0.591313 0.412026 0.00749101
130 1 0.489759 0.306243 0.187818
153 1 0.593026 0.392016 0.205084
34 1 0.694237 0.301558 0.000299191
40 1 0.791324 0.294956 0.101779
55 1 0.701065 0.39382 0.107548
57 1 0.801874 0.401259 0.00433593
134 1 0.698502 0.295826 0.203668
157 1 0.805902 0.393714 0.199455
38 1 0.898229 0.295399 0.000263903
59 1 0.913995 0.394452 0.0911605
138 1 0.909814 0.293252 0.171795
42 1 0.109376 0.510115 0.00311817
44 1 0.00562883 0.502513 0.0990335
48 1 0.204988 0.505525 0.102403
61 1 0.00283009 0.605698 0.00288728
63 1 0.0984313 0.604624 0.10642
65 1 0.201147 0.6095 0.0115598
142 1 0.10088 0.499805 0.203439
161 1 -0.00590245 0.60182 0.197622
165 1 0.203141 0.586761 0.210921
46 1 0.308317 0.506396 -0.00469298
52 1 0.394581 0.502779 0.102407
67 1 0.302674 0.606721 0.103898
69 1 0.394925 0.608881 0.00140783
146 1 0.307483 0.504936 0.19857
169 1 0.408004 0.60176 0.203776
50 1 0.489366 0.510066 0.00500776
56 1 0.601685 0.494051 0.103487
71 1 0.498305 0.603019 0.10015
73 1 0.602809 0.599571 0.00676634
150 1 0.492473 0.494649 0.19694
173 1 0.606366 0.597369 0.190275
54 1 0.700556 0.496318 0.0170628
60 1 0.812191 0.489275 0.103214
75 1 0.70811 0.603918 0.103218
77 1 0.795186 0.610777 0.00362296
154 1 0.706373 0.488757 0.202482
177 1 0.807649 0.599515 0.205763
58 1 0.902878 0.504622 0.0055925
79 1 0.893179 0.608069 0.0979052
158 1 0.904914 0.494406 0.197687
62 1 0.100919 0.707143 0.00447228
64 1 -0.00840373 0.705377 0.101734
68 1 0.198323 0.695204 0.118364
81 1 0.00777274 0.81002 0.00291002
83 1 0.0980236 0.796796 0.114658
85 1 0.19439 0.80006 0.00604726
162 1 0.0986143 0.689452 0.225335
181 1 -0.000846904 0.805318 0.205245
185 1 0.191302 0.793327 0.211756
66 1 0.293237 0.709227 -0.0050037
72 1 0.405407 0.699299 0.109396
87 1 0.297383 0.793335 0.10209
89 1 0.394139 0.800211 -0.0045904
166 1 0.300934 0.692991 0.203036
189 1 0.391668 0.802394 0.201393
70 1 0.494032 0.70319 0.00345227
76 1 0.600301 0.700192 0.0942916
91 1 0.503135 0.802002 0.0976306
93 1 0.603038 0.799603 0.00215606
170 1 0.506832 0.711 0.199089
193 1 0.599633 0.806248 0.200677
74 1 0.700543 0.700079 0.000305229
80 1 0.812442 0.712154 0.10916
95 1 0.707765 0.802619 0.102778
97 1 0.809443 0.798376 -0.000946225
174 1 0.698187 0.7015 0.194965
197 1 0.809434 0.808994 0.204423
78 1 0.912678 0.710058 0.00712405
99 1 0.901615 0.81218 0.0989142
178 1 0.907656 0.701653 0.204369
82 1 0.106006 0.901543 0.00162388
84 1 0.00509284 0.908629 0.102097
88 1 0.197256 0.892941 0.110724
182 1 0.102167 0.892065 0.214481
86 1 0.299005 0.896855 0.00622191
92 1 0.399623 0.902282 0.0985553
186 1 0.305871 0.907882 0.200029
90 1 0.493341 0.888098 -0.00503074
96 1 0.604134 0.896412 0.0983023
190 1 0.499063 0.893954 0.196895
94 1 0.697658 0.898211 0.00056913
100 1 0.80271 0.906246 0.0994494
194 1 0.69774 0.905273 0.205232
98 1 0.90159 0.90976 -0.00170372
198 1 0.894635 0.909931 0.206096
103 1 0.101227 0.00995202 0.306547
104 1 -0.00134993 0.0986591 0.296208
108 1 0.205131 0.1025 0.299193
123 1 0.0925186 0.197634 0.292717
201 1 0.00454272 -0.00365168 0.397548
202 1 0.0954273 0.107694 0.393205
205 1 0.211468 0.00494686 0.394966
221 1 -0.00885063 0.203256 0.400223
225 1 0.199254 0.199531 0.397244
107 1 0.304294 0.00131783 0.296127
112 1 0.398114 0.109668 0.293231
127 1 0.299534 0.205531 0.294856
206 1 0.297446 0.107461 0.397859
209 1 0.401751 0.00786174 0.398205
229 1 0.396093 0.211548 0.39847
111 1 0.504552 0.00760059 0.299919
116 1 0.59797 0.104336 0.299802
131 1 0.501198 0.202853 0.293951
210 1 0.504458 0.106531 0.396679
213 1 0.605861 0.00725046 0.404695
233 1 0.600265 0.208195 0.401784
115 1 0.693956 -0.00612615 0.29588
120 1 0.794583 0.0984298 0.309445
135 1 0.704493 0.207124 0.303463
214 1 0.693355 0.114843 0.405875
217 1 0.79591 0.0152928 0.41412
237 1 0.806413 0.20367 0.404736
119 1 0.896097 -0.00163089 0.311135
139 1 0.896154 0.197216 0.297899
218 1 0.900739 0.101382 0.41012
124 1 -0.000938984 0.294685 0.287647
128 1 0.19154 0.296456 0.290507
143 1 0.0959259 0.392857 0.285718
222 1 0.0969182 0.295302 0.397761
241 1 -0.00312307 0.405504 0.393019
245 1 0.192702 0.39288 0.391555
132 1 0.401533 0.301496 0.291902
147 1 0.29609 0.401199 0.294285
226 1 0.298886 0.297769 0.397652
249 1 0.389927 0.395204 0.395299
136 1 0.590799 0.302361 0.315483
151 1 0.494535 0.398045 0.309321
230 1 0.493721 0.307241 0.405992
253 1 0.616476 0.387974 0.409725
140 1 0.802514 0.296525 0.291851
155 1 0.707025 0.397349 0.304088
234 1 0.705404 0.294304 0.399806
257 1 0.803389 0.38794 0.394547
159 1 0.90447 0.402395 0.293792
238 1 0.902979 0.304834 0.396285
144 1 -0.000666813 0.503604 0.29727
148 1 0.197775 0.499626 0.298845
163 1 0.105618 0.595025 0.30959
242 1 0.104879 0.491777 0.406412
261 1 -0.00182606 0.598683 0.414137
265 1 0.199607 0.595215 0.415929
152 1 0.402502 0.495465 0.295502
167 1 0.309174 0.602183 0.297357
246 1 0.29253 0.503398 0.396449
269 1 0.406372 0.595642 0.394528
156 1 0.604184 0.495811 0.298615
171 1 0.5077 0.593078 0.295206
250 1 0.509194 0.492268 0.399177
273 1 0.607294 0.58779 0.401348
160 1 0.798538 0.500186 0.302135
175 1 0.699494 0.596398 0.296296
254 1 0.709083 0.498669 0.400975
277 1 0.793625 0.609311 0.397887
179 1 0.897468 0.595831 0.304026
258 1 0.894554 0.498695 0.401701
164 1 0.00113935 0.694165 0.31058
168 1 0.206289 0.700987 0.307916
183 1 0.10802 0.794315 0.31966
262 1 0.0985731 0.692941 0.407392
281 1 -0.00163506 0.807616 0.404232
285 1 0.209572 0.797866 0.40537
172 1 0.397601 0.699382 0.302902
187 1 0.307774 0.802332 0.298121
266 1 0.295728 0.683928 0.409403
289 1 0.395423 0.799067 0.400131
176 1 0.60844 0.698721 0.290525
191 1 0.50129 0.797554 0.308175
270 1 0.497907 0.696439 0.406197
293 1 0.603175 0.798346 0.401277
180 1 0.805649 0.704961 0.304565
195 1 0.691438 0.805168 0.294693
274 1 0.698088 0.697386 0.393128
297 1 0.779708 0.792768 0.402769
199 1 0.898731 0.802795 0.302329
278 1 0.902879 0.708974 0.40072
184 1 0.00381294 0.894328 0.300471
188 1 0.209777 0.89629 0.304643
282 1 0.11196 0.901976 0.403281
192 1 0.40365 0.905063 0.2938
286 1 0.304081 0.900595 0.400024
196 1 0.591202 0.904965 0.301998
290 1 0.503542 0.909513 0.392087
200 1 0.798321 0.898803 0.302883
294 1 0.694299 0.898854 0.398512
298 1 0.891529 0.898331 0.403699
203 1 0.108294 0.011005 0.489431
204 1 0.00104402 0.0930549 0.501115
208 1 0.206219 0.100849 0.491784
223 1 0.105517 0.198011 0.501945
301 1 0.00598258 0.00329546 0.594315
302 1 0.11116 0.109039 0.598431
305 1 0.207326 0.0080247 0.593331
321 1 0.00773336 0.199147 0.595764
325 1 0.206152 0.200142 0.609864
207 1 0.30531 0.00377017 0.492966
212 1 0.403183 0.103999 0.495291
227 1 0.308252 0.196826 0.498455
306 1 0.301046 0.104031 0.601261
309 1 0.390947 0.0119042 0.604551
329 1 0.39888 0.197238 0.603084
211 1 0.496241 0.00182826 0.510285
216 1 0.599312 0.10424 0.509719
231 1 0.498439 0.203509 0.503453
310 1 0.503 0.100378 0.606307
313 1 0.59652 -0.00251238 0.602452
333 1 0.59519 0.197975 0.609458
215 1 0.696595 0.00783727 0.510218
220 1 0.794771 0.103498 0.502346
235 1 0.699747 0.207405 0.510192
314 1 0.698455 0.101814 0.602122
317 1 0.795311 -0.00273604 0.601547
337 1 0.799413 0.209951 0.606944
219 1 0.899852 0.00240901 0.499886
239 1 0.900208 0.200962 0.507759
318 1 0.904573 0.101018 0.601464
224 1 0.0011839 0.292835 0.50489
228 1 0.198162 0.292133 0.494535
243 1 0.100315 0.391055 0.502479
322 1 0.0987599 0.294829 0.60497
341 1 0.00848239 0.398678 0.605991
345 1 0.20376 0.389851 0.59413
232 1 0.393904 0.297914 0.501582
247 1 0.291679 0.403545 0.493061
326 1 0.301415 0.298119 0.597426
349 1 0.390769 0.396309 0.592166
236 1 0.608969 0.296268 0.506638
251 1 0.495315 0.396683 0.499655
330 1 0.49716 0.297429 0.604054
353 1 0.603681 0.396766 0.597232
240 1 0.80411 0.301683 0.498412
255 1 0.717297 0.38942 0.510015
334 1 0.703676 0.302343 0.609099
357 1 0.805934 0.394403 0.605744
259 1 0.907147 0.395604 0.499628
338 1 0.902485 0.29975 0.601306
244 1 -0.00190137 0.500827 0.497908
248 1 0.197613 0.496891 0.51529
263 1 0.0980377 0.596049 0.504593
342 1 0.0932302 0.501238 0.610517
361 1 -0.00355854 0.595298 0.597169
365 1 0.20075 0.605653 0.599616
252 1 0.394085 0.489269 0.493406
267 1 0.303913 0.59292 0.502864
346 1 0.296734 0.501431 0.597685
369 1 0.409564 0.58818 0.596924
256 1 0.60078 0.490742 0.50472
271 1 0.493815 0.591825 0.497658
350 1 0.506182 0.488733 0.601233
373 1 0.600111 0.592722 0.598284
260 1 0.80425 0.502554 0.496117
275 1 0.701219 0.589201 0.501603
354 1 0.703152 0.495527 0.595774
377 1 0.803769 0.606327 0.599036
279 1 0.894388 0.603094 0.501478
358 1 0.901873 0.494031 0.60229
264 1 -0.00136927 0.707428 0.501151
268 1 0.193945 0.697668 0.502875
283 1 0.0976382 0.799054 0.49237
362 1 0.0957756 0.695507 0.600847
381 1 0.00414835 0.798737 0.591774
385 1 0.200815 0.809977 0.587438
272 1 0.400873 0.699098 0.499345
287 1 0.300493 0.803078 0.502302
366 1 0.31194 0.699254 0.599188
389 1 0.399543 0.80008 0.593725
276 1 0.601903 0.687896 0.500271
291 1 0.495458 0.799149 0.496064
370 1 0.503031 0.690478 0.592608
393 1 0.585237 0.800308 0.601075
280 1 0.786354 0.701585 0.512229
295 1 0.689024 0.804957 0.498044
374 1 0.691718 0.705365 0.602587
397 1 0.783455 0.806339 0.586959
299 1 0.892257 0.803858 0.493433
378 1 0.89713 0.696415 0.597565
284 1 0.00908315 0.90966 0.491956
288 1 0.206459 0.912393 0.497334
382 1 0.1006 0.904717 0.582859
292 1 0.40418 0.906967 0.499973
386 1 0.306971 0.90948 0.602689
296 1 0.5962 0.910452 0.498149
390 1 0.487794 0.900727 0.589766
300 1 0.786324 0.905974 0.492109
394 1 0.684813 0.906546 0.599014
398 1 0.907879 0.906334 0.593422
303 1 0.116098 0.00111823 0.690512
304 1 -0.000732299 0.103305 0.694773
308 1 0.205412 0.102092 0.707359
323 1 0.0991637 0.192794 0.71164
401 1 0.0119332 -0.00329098 0.798835
402 1 0.0969625 0.0928947 0.80417
405 1 0.197743 -0.00632524 0.799857
421 1 0.00315751 0.201872 0.804202
425 1 0.209415 0.190748 0.804566
307 1 0.297031 0.00752628 0.705351
312 1 0.40177 0.0962024 0.709026
327 1 0.299536 0.193339 0.700543
406 1 0.30012 0.0929118 0.817701
409 1 0.394371 0.000326975 0.800562
429 1 0.402443 0.188085 0.807897
311 1 0.498127 -0.00630314 0.69232
316 1 0.598398 0.0861677 0.702497
331 1 0.50031 0.199105 0.701868
410 1 0.510973 0.0892116 0.802254
413 1 0.604451 -0.00751473 0.798707
433 1 0.601344 0.192056 0.803393
315 1 0.703334 -0.00230968 0.706199
320 1 0.798444 0.095725 0.698356
335 1 0.694189 0.19527 0.701752
414 1 0.704762 0.0875274 0.798255
417 1 0.797827 -0.00379624 0.795082
437 1 0.799417 0.20169 0.798849
319 1 0.900415 -0.00273323 0.696757
339 1 0.911033 0.207847 0.701312
418 1 0.899434 0.104933 0.796929
324 1 0.00640118 0.298962 0.703688
328 1 0.203889 0.30567 0.701951
343 1 0.105924 0.397059 0.712644
422 1 0.114327 0.299816 0.796017
441 1 -0.0015091 0.400485 0.810376
445 1 0.207646 0.404186 0.794644
332 1 0.403716 0.29821 0.704922
347 1 0.307459 0.408073 0.699125
426 1 0.30018 0.290748 0.802745
449 1 0.399634 0.394356 0.797296
336 1 0.60349 0.307904 0.706741
351 1 0.491898 0.395805 0.688352
430 1 0.506932 0.297998 0.803867
453 1 0.58639 0.411532 0.804084
340 1 0.806805 0.301693 0.710054
355 1 0.698881 0.394504 0.698994
434 1 0.690986 0.308398 0.79847
457 1 0.801612 0.406564 0.797417
359 1 0.904411 0.393907 0.708112
438 1 0.902376 0.302223 0.801054
344 1 0.00606306 0.510266 0.709704
348 1 0.204885 0.498175 0.691499
363 1 0.107064 0.599773 0.699133
442 1 0.099485 0.498108 0.799529
461 1 0.00221786 0.605516 0.806518
465 1 0.199286 0.605038 0.797102
352 1 0.398684 0.503881 0.699961
367 1 0.298176 0.600534 0.698055
446 1 0.302388 0.509798 0.800475
469 1 0.399528 0.6065 0.797409
356 1 0.595161 0.493013 0.697418
371 1 0.498543 0.597641 0.691373
450 1 0.488414 0.503122 0.801802
473 1 0.595037 0.603851 0.800278
360 1 0.80018 0.504555 0.69281
375 1 0.687808 0.601962 0.702566
454 1 0.694649 0.505679 0.793616
477 1 0.792028 0.605153 0.796922
379 1 0.899031 0.601252 0.701813
458 1 0.892193 0.505548 0.806321
364 1 -0.00164384 0.700227 0.690857
368 1 0.2077 0.695588 0.692968
383 1 0.0991693 0.796884 0.688965
462 1 0.106832 0.70483 0.792519
481 1 0.00586616 0.794342 0.796401
485 1 0.201836 0.809991 0.78928
372 1 0.389212 0.701549 0.696705
387 1 0.292143 0.810013 0.696254
466 1 0.297671 0.699934 0.80073
489 1 0.386794 0.800104 0.802905
376 1 0.594467 0.704602 0.700082
391 1 0.484805 0.790835 0.695147
470 1 0.487304 0.707455 0.79871
493 1 0.606315 0.796938 0.797883
380 1 0.79975 0.708076 0.689537
395 1 0.700429 0.800513 0.70058
474 1 0.696386 0.70302 0.803881
497 1 0.800383 0.794767 0.794267
399 1 0.914781 0.800755 0.691495
478 1 0.89806 0.70203 0.788907
384 1 0.0172338 0.902406 0.685575
388 1 0.197574 0.906056 0.687701
482 1 0.096509 0.899199 0.796523
392 1 0.396779 0.898335 0.705297
486 1 0.29367 0.903907 0.800767
396 1 0.59032 0.889078 0.696375
490 1 0.493232 0.894012 0.80282
400 1 0.805004 0.897003 0.699779
494 1 0.693784 0.895395 0.800788
498 1 0.912467 0.89708 0.79768
403 1 0.10766 0.00310486 0.902772
404 1 -0.00220961 0.100269 0.891725
408 1 0.196022 0.100215 0.904567
423 1 0.106599 0.208925 0.899238
407 1 0.288246 -0.00349204 0.90687
412 1 0.405061 0.0943451 0.900146
427 1 0.300193 0.199068 0.915604
411 1 0.502422 -0.0148448 0.896092
416 1 0.608561 0.0910346 0.902286
431 1 0.506572 0.192271 0.897514
415 1 0.701005 -0.00638991 0.894362
420 1 0.799141 0.0990152 0.892446
435 1 0.6954 0.212197 0.900891
419 1 0.898268 -0.00439432 0.889261
439 1 0.893885 0.206224 0.899154
424 1 9.06291e-05 0.307531 0.902756
428 1 0.207916 0.299602 0.897737
443 1 0.111287 0.401628 0.893101
432 1 0.397304 0.299527 0.892428
447 1 0.297982 0.404418 0.893836
436 1 0.593763 0.309916 0.902059
451 1 0.492916 0.405056 0.903453
440 1 0.788086 0.30758 0.898282
455 1 0.691465 0.411555 0.913057
459 1 0.894209 0.40008 0.905218
444 1 -0.00875214 0.508563 0.89695
448 1 0.204434 0.512628 0.894638
463 1 0.101731 0.599749 0.894572
452 1 0.397292 0.50663 0.898716
467 1 0.300335 0.602236 0.895576
456 1 0.593564 0.504328 0.891436
471 1 0.5068 0.606839 0.903395
460 1 0.796765 0.502627 0.91199
475 1 0.696999 0.5973 0.900338
479 1 0.900505 0.606194 0.905535
464 1 0.0027218 0.700324 0.903389
468 1 0.198209 0.695643 0.8987
483 1 0.103978 0.802267 0.896245
472 1 0.398088 0.696257 0.895283
487 1 0.297001 0.796842 0.901366
476 1 0.598271 0.699593 0.899761
491 1 0.497795 0.791851 0.899168
480 1 0.807946 0.698631 0.897761
495 1 0.707128 0.798276 0.896474
499 1 0.909963 0.798994 0.885969
484 1 0.00700101 0.900212 0.904248
488 1 0.194191 0.901956 0.895158
492 1 0.391516 0.898308 0.903947
496 1 0.599303 0.898395 0.896087
500 1 0.801934 0.888746 0.889994
ITEM: TIMESTEP
2000
ITEM: NUMBER OF ATOMS
500
ITEM: BOX BOUNDS pp pp pp
0.0000000000000000e+00 1.8050000000000001e+01
0.0000000000000000e+00 1.8050000000000001e+01
0.0000000000000000e+00 1.8050000000000001e+01
ITEM: ATOMS id type xs ys zs
1 1 -0.0110859 -0.00768711 0.00176607
2 1 0.101318 0.0830787 0.00840533
3 1 0.0956443 -0.00929672 0.107365
4 1 -0.0058815 0.0916973 0.0970319
5 1 0.200125 -0.0045619 0.00233076
8 1 0.202127 0.0886181 0.103172
21 1 -0.00950573 0.187086 -0.0014413
23 1 0.103056 0.201593 0.090542
25 1 0.199025 0.201188 -0.00530201
101 1 0.00558084 0.00165923 0.198238
102 1 0.0931087 0.0998331 0.196598
105 1 0.210362 -0.0121422 0.199204
121 1 0.00347857 0.200694 0.200546
125 1 0.20211 0.19199 0.182162
6 1 0.292107 0.0946321 0.0017412
7 1 0.302404 -0.0115649 0.0984952
9 1 0.41231 0.000376867 0.00234996
12 1 0.384608 0.102158 0.104579
27 1 0.295893 0.198575 0.0948885
29 1 0.384327 0.189295 -6.0724e-05
106 1 0.292413 0.0906399 0.202445
109 1 0.39906 -0.0051469 0.204453
129 1 0.396385 0.214092 0.187701
10 1 0.500822 0.0900141 0.00173517
11 1 0.504173 0.00950411 0.104637
13 1 0.602971 -0.00519329 0.00416036
16 1 0.596861 0.104758 0.104405
31 1 0.490863 0.196475 0.0977226
33 1 0.599673 0.199763 -8.50893e-05
110 1 0.50125 0.104426 0.201301
113 1 0.592306 0.00240169 0.202748
133 1 0.602601 0.199719 0.198207
14 1 0.699693 0.0996066 -0.000322088
15 1 0.695408 0.000987723 0.0940209
17 1 0.798011 -0.000303795 -0.00192518
20 1 0.803058 0.109301 0.10163
35 1 0.706591 0.216601 0.0874335
37 1 0.808128 0.196207 -0.00987329
114 1 0.704089 0.109369 0.20346
117 1 0.790638 0.00405354 0.191148
137 1 0.811911 0.192596 0.200509
18 1 0.900067 0.0954247 -0.00907253
19 1 0.888407 -0.0019828 0.0985091
39 1 0.909392 0.198569 0.101762
118 1 0.902113 0.0956848 0.197175
22 1 0.0965802 0.29162 -0.0064115
24 1 -0.00786073 0.297236 0.0939868
28 1 0.207204 0.304148 0.0941768
41 1 -0.00256671 0.392748 0.00903893
43 1 0.103202 0.399521 0.0926263
45 1 0.206458 0.401329 0.00116811
122 1 0.0971694 0.299364 0.190315
141 1 0.00320923 0.385805 0.200126
145 1 0.203185 0.405326 0.19939
26 1 0.301797 0.305795 -0.0128189
32 1 0.409661 0.310691 0.0902386
47 1 0.301751 0.410592 0.0993686
49 1 0.39259 0.408395 -0.010519
126 1 0.299628 0.30035 0.193075
149 1 0.401734 0.394326 0.20293
30 1 0.506628 0.29969 -0.000843959
36 1 0.600017 0.302389 0.101924
51 1 0.492621 0.408555 0.0895646
53 1 0.601519 0.405174 -0.0102993
130 1 0.501546 0.300798 0.194313
153 1 0.601679 0.405716 0.190741
34 1 0.70144 0.302864 -0.0251965
40 1 0.81345 0.304169 0.0916644
55 1 0.705147 0.391589 0.0803164
57 1 0.807499 0.40059 -0.00298439
134 1 0.704483 0.301334 0.200727
157 1 0.800652 0.398679 0.20083
38 1 0.906079 0.291157 -0.0103963
59 1 0.90324 0.402248 0.103635
138 1 0.890914 0.293448 0.195288
42 1 0.0874099 0.513431 -0.004255
44 1 -0.00202362 0.498073 0.110383
48 1 0.186677 0.506934 0.0875019
61 1 -0.0094838 0.614466 0.00160962
63 1 0.0903498 0.601169 0.100967
65 1 0.204974 0.611928 -0.00807807
142 1 0.101508 0.496274 0.199667
161 1 0.00552407 0.59999 0.209369
165 1 0.194374 0.60466 0.203524
46 1 0.300678 0.510298 0.00428877
52 1 0.404221 0.509231 0.0954563
67 1 0.297221 0.601192 0.0908794
69 1 0.40667 0.60812 0.00573922
146 1 0.302131 0.503845 0.195094
169 1 0.394203 0.603589 0.19696
50 1 0.503717 0.501665 -0.00308975
56 1 0.60824 0.497574 0.0883285
71 1 0.515364 0.598135 0.100831
73 1 0.603649 0.597182 -0.00279722
150 1 0.509228 0.497957 0.199361
173 1 0.616843 0.601862 0.209386
54 1 0.703472 0.498786 -0.00645053
60 1 0.802414 0.50222 0.0939893
75 1 0.705324 0.597904 0.0907227
77 1 0.808542 0.604314 -0.000464927
154 1 0.701829 0.492182 0.194502
177 1 0.804659 0.595343 0.195938
58 1 0.911 0.498291 -0.00749335
79 1 0.909407 0.59541 0.103105
158 1 0.905266 0.498952 0.204728
62 1 0.101874 0.700993 -0.00124796
64 1 0.00683266 0.700987 0.118031
68 1 0.19294 0.709667 0.106221
81 1 0.00817998 0.80191 -0.00271928
83 1 0.09456 0.793883 0.119987
85 1 0.203347 0.797513 -0.00282005
162 1 0.100406 0.696046 0.222983
181 1 -0.00931039 0.801741 0.210533
185 1 0.20405 0.801562 0.212637
66 1 0.306939 0.707353 0.0038353
72 1 0.41121 0.695701 0.0984934
87 1 0.303486 0.795579 0.103761
89 1 0.394742 0.800669 -0.00132742
166 1 0.309798 0.718998 0.20908