# LAMMPS data file written by OVITO Basic 3.7.12
2688 atoms
14 atom types
-21.897 17.642 xlo xhi
-20.808 18.573 ylo yhi
-22.263 16.858 zlo zhi

Masses

1 1.0
2 1.0
3 1.0
4 1.0
5 1.0
6 1.0
7 1.0
8 15.9994  # O
9 1.0
10 1.0
11 1.0
12 1.0
13 1.0
14 28.0855  # Si

Atoms  # atomic

1 14 1.999 -1.154 3.603
2 14 0.0 2.309 1.802
3 14 2.256 1.302 0.0
4 8 1.762 0.3 4.246
5 8 3.114 -1.081 2.444
6 8 3.634 0.781 0.642
7 8 1.141 1.376 1.159
8 8 0.621 3.237 2.961
9 8 2.493 2.757 4.763
10 8 -6.017 -2.157 -22.263
11 8 -1.762 -4.613 -22.263
12 8 -1.762 0.3 -22.263
13 8 -14.527 -7.07 -16.858
14 8 -10.272 -9.527 -16.858
15 8 -7.889 -11.503 -18.66
16 8 -6.017 -11.984 -16.858
17 8 -1.762 -14.44 -16.858
18 8 -15.258 -4.613 -17.375
19 8 -14.527 -2.157 -16.858
20 14 -10.766 -8.524 -18.017
21 8 -11.003 -7.07 -17.375
22 8 -9.651 -8.451 -19.177
23 8 -12.144 -4.133 -18.66
24 8 -10.272 -4.613 -16.858
25 14 -6.511 -10.981 -18.017
26 14 -8.51 -7.518 -19.819
27 8 -6.748 -9.527 -17.375
28 8 -5.396 -10.908 -19.177
29 8 -7.369 -8.451 -20.461
30 8 -7.889 -6.589 -18.66
31 8 -6.017 -7.07 -16.858
32 14 -2.256 -13.438 -18.017
33 14 -4.255 -9.975 -19.819
34 8 -2.493 -11.984 -17.375
35 8 -3.634 -9.046 -18.66
36 8 -1.762 -9.527 -16.858
37 8 0.621 -11.503 -18.66
38 8 2.493 -11.984 -16.858
39 8 -15.258 0.3 -17.375
40 8 -14.527 2.757 -16.858
41 14 -10.766 -3.611 -18.017
42 8 -11.003 -2.157 -17.375
43 8 -9.651 -3.537 -19.177
44 8 -9.132 -1.676 -20.978
45 8 -12.144 0.781 -18.66
46 8 -10.272 0.3 -16.858
47 14 -6.511 -6.068 -18.017
48 14 -8.51 -2.605 -19.819
49 14 -6.254 -3.611 -21.621
50 8 -6.748 -4.613 -17.375
51 8 -5.396 -5.994 -19.177
52 8 -4.876 -4.133 -20.978
53 8 -7.369 -3.537 -20.461
54 8 -7.889 -1.676 -18.66
55 8 -6.017 -2.157 -16.858
56 14 -2.256 -8.524 -18.017
57 14 -4.255 -5.061 -19.819
58 14 -1.999 -6.068 -21.621
59 8 -2.493 -7.07 -17.375
60 8 -1.141 -8.451 -19.177
61 8 -0.621 -6.589 -20.978
62 8 -3.114 -5.994 -20.461
63 8 -3.634 -4.133 -18.66
64 8 -1.762 -4.613 -16.858
65 14 1.999 -10.981 -18.017
66 14 0.0 -7.518 -19.819
67 8 1.762 -9.527 -17.375
68 8 3.114 -10.908 -19.177
69 8 1.141 -8.451 -20.461
70 8 0.621 -6.589 -18.66
71 8 2.493 -7.07 -16.858
72 8 6.017 -11.984 -17.375
73 8 4.876 -9.046 -18.66
74 8 6.748 -9.527 -16.858
75 14 -10.766 1.302 -18.017
76 8 -11.003 2.757 -17.375
77 8 -9.651 1.376 -19.177
78 8 -10.272 5.213 -16.858
79 14 -6.511 -1.154 -18.017
80 14 -8.51 2.309 -19.819
81 14 -6.254 1.302 -21.621
82 8 -6.748 0.3 -17.375
83 8 -5.396 -1.081 -19.177
84 8 -4.876 0.781 -20.978
85 8 -7.369 1.376 -20.461
86 8 -7.889 3.237 -18.66
87 8 -6.017 2.757 -16.858
88 14 -2.256 -3.611 -18.017
89 14 -4.255 -0.148 -19.819
90 14 -1.999 -1.154 -21.621
91 8 -2.493 -2.157 -17.375
92 8 -1.141 -3.537 -19.177
93 8 -0.621 -1.676 -20.978
94 8 -3.114 -1.081 -20.461
95 8 -3.634 0.781 -18.66
96 8 -1.762 0.3 -16.858
97 14 1.999 -6.068 -18.017
98 14 0.0 -2.605 -19.819
99 14 2.256 -3.611 -21.621
100 8 1.762 -4.613 -17.375
101 8 3.114 -5.994 -19.177
102 8 3.634 -4.133 -20.978
103 8 1.141 -3.537 -20.461
104 8 0.621 -1.676 -18.66
105 8 2.493 -2.157 -16.858
106 14 6.254 -8.524 -18.017
107 14 4.255 -5.061 -19.819
108 8 6.017 -7.07 -17.375
109 8 5.396 -5.994 -20.461
110 8 4.876 -4.133 -18.66
111 8 6.748 -4.613 -16.858
112 14 -10.766 6.216 -18.017
113 8 -11.003 7.67 -17.375
114 8 -9.651 6.289 -19.177
115 8 -10.272 10.127 -16.858
116 14 -6.511 3.759 -18.017
117 8 -6.748 5.213 -17.375
118 8 -5.396 3.833 -19.177
119 8 -4.876 5.694 -20.978
120 8 -7.369 6.289 -20.461
121 8 -7.889 8.151 -18.66
122 8 -6.017 7.67 -16.858
123 14 -2.256 1.302 -18.017
124 14 -4.255 4.765 -19.819
125 14 -1.999 3.759 -21.621
126 8 -2.493 2.757 -17.375
127 8 -1.141 1.376 -19.177
128 8 -0.621 3.237 -20.978
129 8 -3.114 3.833 -20.461
130 8 -3.634 5.694 -18.66
131 8 -1.762 5.213 -16.858
132 14 1.999 -1.154 -18.017
133 14 0.0 2.309 -19.819
134 14 2.256 1.302 -21.621
135 8 1.762 0.3 -17.375
136 8 3.114 -1.081 -19.177
137 8 3.634 0.781 -20.978
138 8 1.141 1.376 -20.461
139 8 0.621 3.237 -18.66
140 8 2.493 2.757 -16.858
141 14 6.254 -3.611 -18.017
142 14 4.255 -0.148 -19.819
143 8 6.017 -2.157 -17.375
144 8 7.369 -3.537 -19.177
145 8 5.396 -1.081 -20.461
146 8 4.876 0.781 -18.66
147 8 6.748 0.3 -16.858
148 8 10.272 -4.613 -17.375
149 8 9.132 -1.676 -18.66
150 8 11.003 -2.157 -16.858
151 14 -6.511 8.672 -18.017
152 8 -6.748 10.127 -17.375
153 8 -5.396 8.746 -19.177
154 14 -2.256 6.216 -18.017
155 8 -2.493 7.67 -17.375
156 8 -1.141 6.289 -19.177
157 8 -3.634 10.608 -18.66
158 8 -1.762 10.127 -16.858
159 14 1.999 3.759 -18.017
160 14 0.0 7.222 -19.819
161 8 1.762 5.213 -17.375
162 8 3.114 3.833 -19.177
163 8 1.141 6.289 -20.461
164 8 0.621 8.151 -18.66
165 8 2.493 7.67 -16.858
166 14 6.254 1.302 -18.017
167 14 4.255 4.765 -19.819
168 8 6.017 2.757 -17.375
169 8 7.369 1.376 -19.177
170 8 5.396 3.833 -20.461
171 8 4.876 5.694 -18.66
172 8 6.748 5.213 -16.858
173 14 10.51 -1.154 -18.017
174 8 10.272 0.3 -17.375
175 8 11.003 2.757 -16.858
176 14 -2.256 11.129 -18.017
177 14 1.999 8.672 -18.017
178 8 1.762 10.127 -17.375
179 8 3.114 8.746 -19.177
180 14 6.254 6.216 -18.017
181 8 6.017 7.67 -17.375
182 8 -14.527 -11.984 -11.453
183 8 -12.144 -13.959 -13.254
184 8 -10.272 -14.44 -11.453
185 8 -7.889 -16.416 -13.254
186 8 -6.017 -16.897 -11.453
187 8 -18.783 -4.613 -11.453
188 14 -15.021 -10.981 -12.612
189 14 -17.021 -7.518 -14.414
190 14 -14.765 -8.524 -16.216
191 8 -15.258 -9.527 -11.97
192 8 -13.906 -10.908 -13.772
193 8 -13.387 -9.046 -15.573
194 8 -15.88 -8.451 -15.056
195 8 -16.399 -6.589 -13.254
196 8 -14.527 -7.07 -11.453
197 14 -10.766 -13.438 -12.612
198 14 -12.765 -9.975 -14.414
199 14 -10.51 -10.981 -16.216
200 8 -11.003 -11.984 -11.97
201 8 -9.651 -13.364 -13.772
202 8 -9.132 -11.503 -15.573
203 8 -11.625 -10.908 -15.056
204 8 -12.144 -9.046 -13.254
205 8 -10.272 -9.527 -11.453
206 14 -6.511 -15.895 -12.612
207 14 -8.51 -12.432 -14.414
208 14 -6.254 -13.438 -16.216
209 8 -6.748 -14.44 -11.97
210 8 -5.396 -15.821 -13.772
211 8 -4.876 -13.959 -15.573
212 8 -7.369 -13.364 -15.056
213 8 -7.889 -11.503 -13.254
214 8 -6.017 -11.984 -11.453
215 14 -2.256 -18.351 -12.612
216 14 -4.255 -14.888 -14.414
217 14 -1.999 -15.895 -16.216
218 8 -2.493 -16.897 -11.97
219 8 -0.621 -16.416 -15.573
220 8 -3.114 -15.821 -15.056
221 8 -3.634 -13.959 -13.254
222 8 -1.762 -14.44 -11.453
223 8 0.621 -16.416 -13.254
224 8 2.493 -16.897 -11.453
225 14 -19.276 -3.611 -12.612
226 8 -19.514 -2.157 -11.97
227 8 -18.161 -3.537 -13.772
228 8 -18.783 0.3 -11.453
229 14 -15.021 -6.068 -12.612
230 14 -17.021 -2.605 -14.414
231 14 -14.765 -3.611 -16.216
232 8 -15.258 -4.613 -11.97
233 8 -13.906 -5.994 -13.772
234 8 -13.387 -4.133 -15.573
235 8 -15.88 -3.537 -15.056
236 8 -16.399 -1.676 -13.254
237 8 -14.527 -2.157 -11.453
238 14 -10.766 -8.524 -12.612
239 14 -12.765 -5.061 -14.414
240 14 -10.51 -6.068 -16.216
241 8 -11.003 -7.07 -11.97
242 8 -9.651 -8.451 -13.772
243 8 -9.132 -6.589 -15.573
244 8 -11.625 -5.994 -15.056
245 8 -12.144 -4.133 -13.254
246 8 -10.272 -4.613 -11.453
247 14 -6.511 -10.981 -12.612
248 14 -8.51 -7.518 -14.414
249 14 -6.254 -8.524 -16.216
250 8 -6.748 -9.527 -11.97
251 8 -5.396 -10.908 -13.772
252 8 -4.876 -9.046 -15.573
253 8 -7.369 -8.451 -15.056
254 8 -7.889 -6.589 -13.254
255 8 -6.017 -7.07 -11.453
256 14 -2.256 -13.438 -12.612
257 14 -4.255 -9.975 -14.414
258 14 -1.999 -10.981 -16.216
259 8 -2.493 -11.984 -11.97
260 8 -1.141 -13.364 -13.772
261 8 -0.621 -11.503 -15.573
262 8 -3.114 -10.908 -15.056
263 8 -3.634 -9.046 -13.254
264 8 -1.762 -9.527 -11.453
265 14 1.999 -15.895 -12.612
266 14 0.0 -12.432 -14.414
267 14 2.256 -13.438 -16.216
268 8 1.762 -14.44 -11.97
269 8 3.114 -15.821 -13.772
270 8 3.634 -13.959 -15.573
271 8 1.141 -13.364 -15.056
272 8 0.621 -11.503 -13.254
273 8 2.493 -11.984 -11.453
274 14 4.255 -14.888 -14.414
275 8 6.017 -16.897 -11.97
276 8 4.876 -13.959 -13.254
277 8 6.748 -14.44 -11.453
278 14 -19.276 1.302 -12.612
279 8 -18.161 1.376 -13.772
280 8 -18.783 5.213 -11.453
281 14 -15.021 -1.154 -12.612
282 14 -17.021 2.309 -14.414
283 14 -14.765 1.302 -16.216
284 8 -15.258 0.3 -11.97
285 8 -13.906 -1.081 -13.772
286 8 -13.387 0.781 -15.573
287 8 -15.88 1.376 -15.056
288 8 -16.399 3.237 -13.254
289 8 -14.527 2.757 -11.453
290 14 -10.766 -3.611 -12.612
291 14 -12.765 -0.148 -14.414
292 14 -10.51 -1.154 -16.216
293 8 -11.003 -2.157 -11.97
294 8 -9.651 -3.537 -13.772
295 8 -9.132 -1.676 -15.573
296 8 -11.625 -1.081 -15.056
297 8 -12.144 0.781 -13.254
298 8 -10.272 0.3 -11.453
299 14 -6.511 -6.068 -12.612
300 14 -8.51 -2.605 -14.414
301 14 -6.254 -3.611 -16.216
302 8 -6.748 -4.613 -11.97
303 8 -5.396 -5.994 -13.772
304 8 -4.876 -4.133 -15.573
305 8 -7.369 -3.537 -15.056
306 8 -7.889 -1.676 -13.254
307 8 -6.017 -2.157 -11.453
308 14 -2.256 -8.524 -12.612
309 14 -4.255 -5.061 -14.414
310 14 -1.999 -6.068 -16.216
311 8 -2.493 -7.07 -11.97
312 8 -1.141 -8.451 -13.772
313 8 -0.621 -6.589 -15.573
314 8 -3.114 -5.994 -15.056
315 8 -3.634 -4.133 -13.254
316 8 -1.762 -4.613 -11.453
317 14 1.999 -10.981 -12.612
318 14 0.0 -7.518 -14.414
319 14 2.256 -8.524 -16.216
320 8 1.762 -9.527 -11.97
321 8 3.114 -10.908 -13.772
322 8 3.634 -9.046 -15.573
323 8 1.141 -8.451 -15.056
324 8 0.621 -6.589 -13.254
325 8 2.493 -7.07 -11.453
326 14 6.254 -13.438 -12.612
327 14 4.255 -9.975 -14.414
328 14 6.511 -10.981 -16.216
329 8 6.017 -11.984 -11.97
330 8 7.369 -13.364 -13.772
331 8 7.889 -11.503 -15.573
332 8 5.396 -10.908 -15.056
333 8 4.876 -9.046 -13.254
334 8 6.748 -9.527 -11.453
335 14 8.51 -12.432 -14.414
336 8 9.132 -11.503 -13.254
337 8 11.003 -11.984 -11.453
338 14 -15.021 3.759 -12.612
339 14 -14.765 6.216 -16.216
340 8 -15.258 5.213 -11.97
341 8 -13.906 3.833 -13.772
342 8 -13.387 5.694 -15.573
343 8 -15.88 6.289 -15.056
344 8 -14.527 7.67 -11.453
345 14 -10.766 1.302 -12.612
346 14 -12.765 4.765 -14.414
347 14 -10.51 3.759 -16.216
348 8 -11.003 2.757 -11.97
349 8 -9.651 1.376 -13.772
350 8 -9.132 3.237 -15.573
351 8 -11.625 3.833 -15.056
352 8 -12.144 5.694 -13.254
353 8 -10.272 5.213 -11.453
354 14 -6.511 -1.154 -12.612
355 14 -8.51 2.309 -14.414
356 14 -6.254 1.302 -16.216
357 8 -6.748 0.3 -11.97
358 8 -5.396 -1.081 -13.772
359 8 -4.876 0.781 -15.573
360 8 -7.369 1.376 -15.056
361 8 -7.889 3.237 -13.254
362 8 -6.017 2.757 -11.453
363 14 -2.256 -3.611 -12.612
364 14 -4.255 -0.148 -14.414
365 14 -1.999 -1.154 -16.216
366 8 -2.493 -2.157 -11.97
367 8 -1.141 -3.537 -13.772
368 8 -0.621 -1.676 -15.573
369 8 -3.114 -1.081 -15.056
370 8 -3.634 0.781 -13.254
371 8 -1.762 0.3 -11.453
372 14 1.999 -6.068 -12.612
373 14 0.0 -2.605 -14.414
374 14 2.256 -3.611 -16.216
375 8 1.762 -4.613 -11.97
376 8 3.114 -5.994 -13.772
377 8 3.634 -4.133 -15.573
378 8 1.141 -3.537 -15.056
379 8 0.621 -1.676 -13.254
380 8 2.493 -2.157 -11.453
381 14 6.254 -8.524 -12.612
382 14 4.255 -5.061 -14.414
383 14 6.511 -6.068 -16.216
384 8 6.017 -7.07 -11.97
385 8 7.369 -8.451 -13.772
386 8 7.889 -6.589 -15.573
387 8 5.396 -5.994 -15.056
388 8 4.876 -4.133 -13.254
389 8 6.748 -4.613 -11.453
390 14 10.51 -10.981 -12.612
391 14 8.51 -7.518 -14.414
392 8 10.272 -9.527 -11.97
393 8 9.651 -8.451 -15.056
394 8 9.132 -6.589 -13.254
395 8 11.003 -7.07 -11.453
396 14 -15.021 8.672 -12.612
397 8 -15.258 10.127 -11.97
398 8 -13.906 8.746 -13.772
399 14 -10.766 6.216 -12.612
400 14 -12.765 9.679 -14.414
401 14 -10.51 8.672 -16.216
402 8 -11.003 7.67 -11.97
403 8 -9.651 6.289 -13.772
404 8 -9.132 8.151 -15.573
405 8 -11.625 8.746 -15.056
406 8 -12.144 10.608 -13.254
407 8 -10.272 10.127 -11.453
408 14 -6.511 3.759 -12.612
409 14 -8.51 7.222 -14.414
410 14 -6.254 6.216 -16.216
411 8 -6.748 5.213 -11.97
412 8 -5.396 3.833 -13.772
413 8 -4.876 5.694 -15.573
414 8 -7.369 6.289 -15.056
415 8 -7.889 8.151 -13.254
416 8 -6.017 7.67 -11.453
417 14 -2.256 1.302 -12.612
418 14 -4.255 4.765 -14.414
419 14 -1.999 3.759 -16.216
420 8 -2.493 2.757 -11.97
421 8 -1.141 1.376 -13.772
422 8 -0.621 3.237 -15.573
423 8 -3.114 3.833 -15.056
424 8 -3.634 5.694 -13.254
425 8 -1.762 5.213 -11.453
426 14 1.999 -1.154 -12.612
427 14 0.0 2.309 -14.414
428 14 2.256 1.302 -16.216
429 8 1.762 0.3 -11.97
430 8 3.114 -1.081 -13.772
431 8 3.634 0.781 -15.573
432 8 1.141 1.376 -15.056
433 8 0.621 3.237 -13.254
434 8 2.493 2.757 -11.453
435 14 6.254 -3.611 -12.612
436 14 4.255 -0.148 -14.414
437 14 6.511 -1.154 -16.216
438 8 6.017 -2.157 -11.97
439 8 7.369 -3.537 -13.772
440 8 7.889 -1.676 -15.573
441 8 5.396 -1.081 -15.056
442 8 4.876 0.781 -13.254
443 8 6.748 0.3 -11.453
444 14 10.51 -6.068 -12.612
445 14 8.51 -2.605 -14.414
446 14 10.766 -3.611 -16.216
447 8 10.272 -4.613 -11.97
448 8 11.625 -5.994 -13.772
449 8 12.144 -4.133 -15.573
450 8 9.651 -3.537 -15.056
451 8 9.132 -1.676 -13.254
452 8 11.003 -2.157 -11.453
453 14 12.765 -5.061 -14.414
454 8 14.527 -7.07 -11.97
455 8 13.387 -4.133 -13.254
456 8 15.258 -4.613 -11.453
457 14 -10.766 11.129 -12.612
458 8 -11.003 12.583 -11.97
459 8 -9.651 11.203 -13.772
460 14 -6.511 8.672 -12.612
461 14 -8.51 12.135 -14.414
462 14 -6.254 11.129 -16.216
463 8 -6.748 10.127 -11.97
464 8 -5.396 8.746 -13.772
465 8 -4.876 10.608 -15.573
466 8 -7.369 11.203 -15.056
467 8 -7.889 13.064 -13.254
468 8 -6.017 12.583 -11.453
469 14 -2.256 6.216 -12.612
470 14 -4.255 9.679 -14.414
471 14 -1.999 8.672 -16.216
472 8 -2.493 7.67 -11.97
473 8 -1.141 6.289 -13.772
474 8 -0.621 8.151 -15.573
475 8 -3.114 8.746 -15.056
476 8 -3.634 10.608 -13.254
477 8 -1.762 10.127 -11.453
478 14 1.999 3.759 -12.612
479 14 0.0 7.222 -14.414
480 14 2.256 6.216 -16.216
481 8 1.762 5.213 -11.97
482 8 3.114 3.833 -13.772
483 8 3.634 5.694 -15.573
484 8 1.141 6.289 -15.056
485 8 0.621 8.151 -13.254
486 8 2.493 7.67 -11.453
487 14 6.254 1.302 -12.612
488 14 4.255 4.765 -14.414
489 14 6.511 3.759 -16.216
490 8 6.017 2.757 -11.97
491 8 7.369 1.376 -13.772
492 8 7.889 3.237 -15.573
493 8 5.396 3.833 -15.056
494 8 4.876 5.694 -13.254
495 8 6.748 5.213 -11.453
496 14 10.51 -1.154 -12.612
497 14 8.51 2.309 -14.414
498 14 10.766 1.302 -16.216
499 8 10.272 0.3 -11.97
500 8 11.625 -1.081 -13.772
501 8 12.144 0.781 -15.573
502 8 9.651 1.376 -15.056
503 8 9.132 3.237 -13.254
504 8 11.003 2.757 -11.453
505 14 14.765 -3.611 -12.612
506 14 12.765 -0.148 -14.414
507 8 14.527 -2.157 -11.97
508 8 13.387 0.781 -13.254
509 8 15.258 0.3 -11.453
510 14 -6.511 13.586 -12.612
511 8 -6.748 15.04 -11.97
512 8 -5.396 13.659 -13.772
513 14 -2.256 11.129 -12.612
514 14 -4.255 14.592 -14.414
515 8 -2.493 12.583 -11.97
516 8 -1.141 11.203 -13.772
517 8 -0.621 13.064 -15.573
518 8 -3.114 13.659 -15.056
519 8 -3.634 15.521 -13.254
520 8 -1.762 15.04 -11.453
521 14 1.999 8.672 -12.612
522 14 0.0 12.135 -14.414
523 14 2.256 11.129 -16.216
524 8 1.762 10.127 -11.97
525 8 3.114 8.746 -13.772
526 8 3.634 10.608 -15.573
527 8 1.141 11.203 -15.056
528 8 0.621 13.064 -13.254
529 8 2.493 12.583 -11.453
530 14 6.254 6.216 -12.612
531 14 4.255 9.679 -14.414
532 14 6.511 8.672 -16.216
533 8 6.017 7.67 -11.97
534 8 7.369 6.289 -13.772
535 8 7.889 8.151 -15.573
536 8 5.396 8.746 -15.056
537 8 4.876 10.608 -13.254
538 8 6.748 10.127 -11.453
539 14 10.51 3.759 -12.612
540 14 8.51 7.222 -14.414
541 8 10.272 5.213 -11.97
542 8 11.625 3.833 -13.772
543 8 9.651 6.289 -15.056
544 8 9.132 8.151 -13.254
545 8 11.003 7.67 -11.453
546 14 14.765 1.302 -12.612
547 14 12.765 4.765 -14.414
548 8 14.527 2.757 -11.97
549 8 13.387 5.694 -13.254
550 14 -2.256 16.043 -12.612
551 14 1.999 13.586 -12.612
552 8 1.762 15.04 -11.97
553 8 3.114 13.659 -13.772
554 14 6.254 11.129 -12.612
555 8 6.017 12.583 -11.97
556 8 7.369 11.203 -13.772
557 14 10.51 8.672 -12.612
558 8 10.272 10.127 -11.97
559 8 -18.783 -9.527 -6.048
560 14 -17.021 -12.432 -9.009
561 14 -14.765 -13.438 -10.81
562 8 -15.258 -14.44 -6.565
563 8 -13.906 -15.821 -8.366
564 8 -13.387 -13.959 -10.168
565 8 -15.88 -13.364 -9.651
566 8 -16.399 -11.503 -7.849
567 8 -14.527 -11.984 -6.048
568 14 -10.766 -18.351 -7.207
569 14 -12.765 -14.888 -9.009
570 14 -10.51 -15.895 -10.81
571 8 -11.003 -16.897 -6.565
572 8 -9.651 -18.278 -8.366
573 8 -9.132 -16.416 -10.168
574 8 -11.625 -15.821 -9.651
575 8 -12.144 -13.959 -7.849
576 8 -10.272 -14.44 -6.048
577 14 -8.51 -17.345 -9.009
578 14 -6.254 -18.351 -10.81
579 8 -6.748 -19.354 -6.565
580 8 -4.876 -18.873 -10.168
581 8 -7.369 -18.278 -9.651
582 8 -7.889 -16.416 -7.849
583 8 -6.017 -16.897 -6.048
584 14 -4.255 -19.802 -9.009
585 8 -3.634 -18.873 -7.849
586 8 -1.762 -19.354 -6.048
587 14 -19.276 -8.524 -7.207
588 14 -19.02 -6.068 -10.81
589 8 -19.514 -7.07 -6.565
590 8 -18.161 -8.451 -8.366
591 8 -17.642 -6.589 -10.168
592 8 -20.135 -5.994 -9.651
593 8 -20.654 -4.133 -7.849
594 8 -18.783 -4.613 -6.048
595 14 -15.021 -10.981 -7.207
596 14 -17.021 -7.518 -9.009
597 14 -14.765 -8.524 -10.81
598 8 -15.258 -9.527 -6.565
599 8 -13.906 -10.908 -8.366
600 8 -13.387 -9.046 -10.168
601 8 -15.88 -8.451 -9.651
602 8 -16.399 -6.589 -7.849
603 8 -14.527 -7.07 -6.048
604 14 -10.766 -13.438 -7.207
605 14 -12.765 -9.975 -9.009
606 14 -10.51 -10.981 -10.81
607 8 -11.003 -11.984 -6.565
608 8 -9.651 -13.364 -8.366
609 8 -9.132 -11.503 -10.168
610 8 -11.625 -10.908 -9.651
611 8 -12.144 -9.046 -7.849
612 8 -10.272 -9.527 -6.048
613 14 -6.511 -15.895 -7.207
614 14 -8.51 -12.432 -9.009
615 14 -6.254 -13.438 -10.81
616 8 -6.748 -14.44 -6.565
617 8 -5.396 -15.821 -8.366
618 8 -4.876 -13.959 -10.168
619 8 -7.369 -13.364 -9.651
620 8 -7.889 -11.503 -7.849
621 8 -6.017 -11.984 -6.048
622 14 -2.256 -18.351 -7.207
623 14 -4.255 -14.888 -9.009
624 14 -1.999 -15.895 -10.81
625 8 -2.493 -16.897 -6.565
626 8 -1.141 -18.278 -8.366
627 8 -0.621 -16.416 -10.168
628 8 -3.114 -15.821 -9.651
629 8 -3.634 -13.959 -7.849
630 8 -1.762 -14.44 -6.048
631 14 0.0 -17.345 -9.009
632 14 2.256 -18.351 -10.81
633 8 1.762 -19.354 -6.565
634 8 1.141 -18.278 -9.651
635 8 0.621 -16.416 -7.849
636 8 2.493 -16.897 -6.048
637 8 4.876 -18.873 -7.849
638 14 -19.276 -3.611 -7.207
639 14 -19.02 -1.154 -10.81
640 8 -19.514 -2.157 -6.565
641 8 -18.161 -3.537 -8.366
642 8 -17.642 -1.676 -10.168
643 8 -20.135 -1.081 -9.651
644 8 -20.654 0.781 -7.849
645 8 -18.783 0.3 -6.048
646 14 -15.021 -6.068 -7.207
647 14 -17.021 -2.605 -9.009
648 14 -14.765 -3.611 -10.81
649 8 -15.258 -4.613 -6.565
650 8 -13.906 -5.994 -8.366
651 8 -13.387 -4.133 -10.168
652 8 -15.88 -3.537 -9.651
653 8 -16.399 -1.676 -7.849
654 8 -14.527 -2.157 -6.048
655 14 -10.766 -8.524 -7.207
656 14 -12.765 -5.061 -9.009
657 14 -10.51 -6.068 -10.81
658 8 -11.003 -7.07 -6.565
659 8 -9.651 -8.451 -8.366
660 8 -9.132 -6.589 -10.168
661 8 -11.625 -5.994 -9.651
662 8 -12.144 -4.133 -7.849
663 8 -10.272 -4.613 -6.048
664 14 -6.511 -10.981 -7.207
665 14 -8.51 -7.518 -9.009
666 14 -6.254 -8.524 -10.81
667 8 -6.748 -9.527 -6.565
668 8 -5.396 -10.908 -8.366
669 8 -4.876 -9.046 -10.168
670 8 -7.369 -8.451 -9.651
671 8 -7.889 -6.589 -7.849
672 8 -6.017 -7.07 -6.048
673 14 -2.256 -13.438 -7.207
674 14 -4.255 -9.975 -9.009
675 14 -1.999 -10.981 -10.81
676 8 -2.493 -11.984 -6.565
677 8 -1.141 -13.364 -8.366
678 8 -0.621 -11.503 -10.168
679 8 -3.114 -10.908 -9.651
680 8 -3.634 -9.046 -7.849
681 8 -1.762 -9.527 -6.048
682 14 1.999 -15.895 -7.207
683 14 0.0 -12.432 -9.009
684 14 2.256 -13.438 -10.81
685 8 1.762 -14.44 -6.565
686 8 3.114 -15.821 -8.366
687 8 3.634 -13.959 -10.168
688 8 1.141 -13.364 -9.651
689 8 0.621 -11.503 -7.849
690 8 2.493 -11.984 -6.048
691 14 6.254 -18.351 -7.207
692 14 4.255 -14.888 -9.009
693 14 6.511 -15.895 -10.81
694 8 6.017 -16.897 -6.565
695 8 7.889 -16.416 -10.168
696 8 5.396 -15.821 -9.651
697 8 4.876 -13.959 -7.849
698 8 6.748 -14.44 -6.048
699 8 9.132 -16.416 -7.849
700 14 -19.276 1.302 -7.207
701 14 -19.02 3.759 -10.81
702 8 -19.514 2.757 -6.565
703 8 -18.161 1.376 -8.366
704 8 -17.642 3.237 -10.168
705 8 -20.135 3.833 -9.651
706 8 -18.783 5.213 -6.048
707 14 -15.021 -1.154 -7.207
708 14 -17.021 2.309 -9.009
709 14 -14.765 1.302 -10.81
710 8 -15.258 0.3 -6.565
711 8 -13.906 -1.081 -8.366
712 8 -13.387 0.781 -10.168
713 8 -15.88 1.376 -9.651
714 8 -16.399 3.237 -7.849
715 8 -14.527 2.757 -6.048
716 14 -10.766 -3.611 -7.207
717 14 -12.765 -0.148 -9.009
718 14 -10.51 -1.154 -10.81
719 8 -11.003 -2.157 -6.565
720 8 -9.651 -3.537 -8.366
721 8 -9.132 -1.676 -10.168
722 8 -11.625 -1.081 -9.651
723 8 -12.144 0.781 -7.849
724 8 -10.272 0.3 -6.048
725 14 -6.511 -6.068 -7.207
726 14 -8.51 -2.605 -9.009
727 14 -6.254 -3.611 -10.81
728 8 -6.748 -4.613 -6.565
729 8 -5.396 -5.994 -8.366
730 8 -4.876 -4.133 -10.168
731 8 -7.369 -3.537 -9.651
732 8 -7.889 -1.676 -7.849
733 8 -6.017 -2.157 -6.048
734 14 -2.256 -8.524 -7.207
735 14 -4.255 -5.061 -9.009
736 14 -1.999 -6.068 -10.81
737 8 -2.493 -7.07 -6.565
738 8 -1.141 -8.451 -8.366
739 8 -0.621 -6.589 -10.168
740 8 -3.114 -5.994 -9.651
741 8 -3.634 -4.133 -7.849
742 8 -1.762 -4.613 -6.048
743 14 1.999 -10.981 -7.207
744 14 0.0 -7.518 -9.009
745 14 2.256 -8.524 -10.81
746 8 1.762 -9.527 -6.565
747 8 3.114 -10.908 -8.366
748 8 3.634 -9.046 -10.168
749 8 1.141 -8.451 -9.651
750 8 0.621 -6.589 -7.849
751 8 2.493 -7.07 -6.048
752 14 6.254 -13.438 -7.207
753 14 4.255 -9.975 -9.009
754 14 6.511 -10.981 -10.81
755 8 6.017 -11.984 -6.565
756 8 7.369 -13.364 -8.366
757 8 7.889 -11.503 -10.168
758 8 5.396 -10.908 -9.651
759 8 4.876 -9.046 -7.849
760 8 6.748 -9.527 -6.048
761 14 10.51 -15.895 -7.207
762 14 8.51 -12.432 -9.009
763 14 10.766 -13.438 -10.81
764 8 10.272 -14.44 -6.565
765 8 9.651 -13.364 -9.651
766 8 9.132 -11.503 -7.849
767 8 11.003 -11.984 -6.048
768 14 -19.276 6.216 -7.207
769 8 -19.514 7.67 -6.565
770 8 -18.161 6.289 -8.366
771 8 -17.642 8.151 -10.168
772 14 -15.021 3.759 -7.207
773 14 -17.021 7.222 -9.009
774 14 -14.765 6.216 -10.81
775 8 -15.258 5.213 -6.565
776 8 -13.906 3.833 -8.366
777 8 -13.387 5.694 -10.168
778 8 -15.88 6.289 -9.651
779 8 -16.399 8.151 -7.849
780 8 -14.527 7.67 -6.048
781 14 -10.766 1.302 -7.207
782 14 -12.765 4.765 -9.009
783 14 -10.51 3.759 -10.81
784 8 -11.003 2.757 -6.565
785 8 -9.651 1.376 -8.366
786 8 -9.132 3.237 -10.168
787 8 -11.625 3.833 -9.651
788 8 -12.144 5.694 -7.849
789 8 -10.272 5.213 -6.048
790 14 -6.511 -1.154 -7.207
791 14 -8.51 2.309 -9.009
792 14 -6.254 1.302 -10.81
793 8 -6.748 0.3 -6.565
794 8 -5.396 -1.081 -8.366
795 8 -4.876 0.781 -10.168
796 8 -7.369 1.376 -9.651
797 8 -7.889 3.237 -7.849
798 8 -6.017 2.757 -6.048
799 14 -2.256 -3.611 -7.207
800 14 -4.255 -0.148 -9.009
801 14 -1.999 -1.154 -10.81
802 8 -2.493 -2.157 -6.565
803 8 -1.141 -3.537 -8.366
804 8 -0.621 -1.676 -10.168
805 8 -3.114 -1.081 -9.651
806 8 -3.634 0.781 -7.849
807 8 -1.762 0.3 -6.048
808 14 1.999 -6.068 -7.207
809 14 0.0 -2.605 -9.009
810 14 2.256 -3.611 -10.81
811 8 1.762 -4.613 -6.565
812 8 3.114 -5.994 -8.366
813 8 3.634 -4.133 -10.168
814 8 1.141 -3.537 -9.651
815 8 0.621 -1.676 -7.849
816 8 2.493 -2.157 -6.048
817 14 6.254 -8.524 -7.207
818 14 4.255 -5.061 -9.009
819 14 6.511 -6.068 -10.81
820 8 6.017 -7.07 -6.565
821 8 7.369 -8.451 -8.366
822 8 7.889 -6.589 -10.168
823 8 5.396 -5.994 -9.651
824 8 4.876 -4.133 -7.849
825 8 6.748 -4.613 -6.048
826 14 10.51 -10.981 -7.207
827 14 8.51 -7.518 -9.009
828 14 10.766 -8.524 -10.81
829 8 10.272 -9.527 -6.565
830 8 11.625 -10.908 -8.366
831 8 12.144 -9.046 -10.168
832 8 9.651 -8.451 -9.651
833 8 9.132 -6.589 -7.849
834 8 11.003 -7.07 -6.048
835 14 12.765 -9.975 -9.009
836 8 13.906 -10.908 -9.651
837 8 13.387 -9.046 -7.849
838 8 15.258 -9.527 -6.048
839 14 -15.021 8.672 -7.207
840 14 -14.765 11.129 -10.81
841 8 -15.258 10.127 -6.565
842 8 -13.906 8.746 -8.366
843 8 -13.387 10.608 -10.168
844 8 -15.88 11.203 -9.651
845 8 -14.527 12.583 -6.048
846 14 -10.766 6.216 -7.207
847 14 -12.765 9.679 -9.009
848 14 -10.51 8.672 -10.81
849 8 -11.003 7.67 -6.565
850 8 -9.651 6.289 -8.366
851 8 -9.132 8.151 -10.168
852 8 -11.625 8.746 -9.651
853 8 -12.144 10.608 -7.849
854 8 -10.272 10.127 -6.048
855 14 -6.511 3.759 -7.207
856 14 -8.51 7.222 -9.009
857 14 -6.254 6.216 -10.81
858 8 -6.748 5.213 -6.565
859 8 -5.396 3.833 -8.366
860 8 -4.876 5.694 -10.168
861 8 -7.369 6.289 -9.651
862 8 -7.889 8.151 -7.849
863 8 -6.017 7.67 -6.048
864 14 -2.256 1.302 -7.207
865 14 -4.255 4.765 -9.009
866 14 -1.999 3.759 -10.81
867 8 -2.493 2.757 -6.565
868 8 -1.141 1.376 -8.366
869 8 -0.621 3.237 -10.168
870 8 -3.114 3.833 -9.651
871 8 -3.634 5.694 -7.849
872 8 -1.762 5.213 -6.048
873 14 1.999 -1.154 -7.207
874 14 0.0 2.309 -9.009
875 14 2.256 1.302 -10.81
876 8 1.762 0.3 -6.565
877 8 3.114 -1.081 -8.366
878 8 3.634 0.781 -10.168
879 8 1.141 1.376 -9.651
880 8 0.621 3.237 -7.849
881 8 2.493 2.757 -6.048
882 14 6.254 -3.611 -7.207
883 14 4.255 -0.148 -9.009
884 14 6.511 -1.154 -10.81
885 8 6.017 -2.157 -6.565
886 8 7.369 -3.537 -8.366
887 8 7.889 -1.676 -10.168
888 8 5.396 -1.081 -9.651
889 8 4.876 0.781 -7.849
890 8 6.748 0.3 -6.048
891 14 10.51 -6.068 -7.207
892 14 8.51 -2.605 -9.009
893 14 10.766 -3.611 -10.81
894 8 10.272 -4.613 -6.565
895 8 11.625 -5.994 -8.366
896 8 12.144 -4.133 -10.168
897 8 9.651 -3.537 -9.651
898 8 9.132 -1.676 -7.849
899 8 11.003 -2.157 -6.048
900 14 14.765 -8.524 -7.207
901 14 12.765 -5.061 -9.009
902 14 15.021 -6.068 -10.81
903 8 14.527 -7.07 -6.565
904 8 13.906 -5.994 -9.651
905 8 13.387 -4.133 -7.849
906 8 15.258 -4.613 -6.048
907 8 -13.906 13.659 -8.366
908 14 -10.766 11.129 -7.207
909 14 -10.51 13.586 -10.81
910 8 -11.003 12.583 -6.565
911 8 -9.651 11.203 -8.366
912 8 -9.132 13.064 -10.168
913 8 -11.625 13.659 -9.651
914 8 -10.272 15.04 -6.048
915 14 -6.511 8.672 -7.207
916 14 -8.51 12.135 -9.009
917 14 -6.254 11.129 -10.81
918 8 -6.748 10.127 -6.565
919 8 -5.396 8.746 -8.366
920 8 -4.876 10.608 -10.168
921 8 -7.369 11.203 -9.651
922 8 -7.889 13.064 -7.849
923 8 -6.017 12.583 -6.048
924 14 -2.256 6.216 -7.207
925 14 -4.255 9.679 -9.009
926 14 -1.999 8.672 -10.81
927 8 -2.493 7.67 -6.565
928 8 -1.141 6.289 -8.366
929 8 -0.621 8.151 -10.168
930 8 -3.114 8.746 -9.651
931 8 -3.634 10.608 -7.849
932 8 -1.762 10.127 -6.048
933 14 1.999 3.759 -7.207
934 14 0.0 7.222 -9.009
935 14 2.256 6.216 -10.81
936 8 1.762 5.213 -6.565
937 8 3.114 3.833 -8.366
938 8 3.634 5.694 -10.168
939 8 1.141 6.289 -9.651
940 8 0.621 8.151 -7.849
941 8 2.493 7.67 -6.048
942 14 6.254 1.302 -7.207
943 14 4.255 4.765 -9.009
944 14 6.511 3.759 -10.81
945 8 6.017 2.757 -6.565
946 8 7.369 1.376 -8.366
947 8 7.889 3.237 -10.168
948 8 5.396 3.833 -9.651
949 8 4.876 5.694 -7.849
950 8 6.748 5.213 -6.048
951 14 10.51 -1.154 -7.207
952 14 8.51 2.309 -9.009
953 14 10.766 1.302 -10.81
954 8 10.272 0.3 -6.565
955 8 11.625 -1.081 -8.366
956 8 12.144 0.781 -10.168
957 8 9.651 1.376 -9.651
958 8 9.132 3.237 -7.849
959 8 11.003 2.757 -6.048
960 14 14.765 -3.611 -7.207
961 14 12.765 -0.148 -9.009
962 14 15.021 -1.154 -10.81
963 8 14.527 -2.157 -6.565
964 8 15.88 -3.537 -8.366
965 8 16.399 -1.676 -10.168
966 8 13.906 -1.081 -9.651
967 8 13.387 0.781 -7.849
968 8 15.258 0.3 -6.048
969 14 -10.766 16.043 -7.207
970 8 -9.651 16.116 -8.366
971 14 -6.511 13.586 -7.207
972 14 -6.254 16.043 -10.81
973 8 -6.748 15.04 -6.565
974 8 -5.396 13.659 -8.366
975 8 -4.876 15.521 -10.168
976 8 -7.369 16.116 -9.651
977 8 -6.017 17.497 -6.048
978 14 -2.256 11.129 -7.207
979 14 -4.255 14.592 -9.009
980 14 -1.999 13.586 -10.81
981 8 -2.493 12.583 -6.565
982 8 -1.141 11.203 -8.366
983 8 -0.621 13.064 -10.168
984 8 -3.114 13.659 -9.651
985 8 -3.634 15.521 -7.849
986 8 -1.762 15.04 -6.048
987 14 1.999 8.672 -7.207
988 14 0.0 12.135 -9.009
989 14 2.256 11.129 -10.81
990 8 1.762 10.127 -6.565
991 8 3.114 8.746 -8.366
992 8 3.634 10.608 -10.168
993 8 1.141 11.203 -9.651
994 8 0.621 13.064 -7.849
995 8 2.493 12.583 -6.048
996 14 6.254 6.216 -7.207
997 14 4.255 9.679 -9.009
998 14 6.511 8.672 -10.81
999 8 6.017 7.67 -6.565
1000 8 7.369 6.289 -8.366
1001 8 7.889 8.151 -10.168
1002 8 5.396 8.746 -9.651
1003 8 4.876 10.608 -7.849
1004 8 6.748 10.127 -6.048
1005 14 10.51 3.759 -7.207
1006 14 8.51 7.222 -9.009
1007 14 10.766 6.216 -10.81
1008 8 10.272 5.213 -6.565
1009 8 11.625 3.833 -8.366
1010 8 12.144 5.694 -10.168
1011 8 9.651 6.289 -9.651
1012 8 9.132 8.151 -7.849
1013 8 11.003 7.67 -6.048
1014 14 14.765 1.302 -7.207
1015 14 12.765 4.765 -9.009
1016 14 15.021 3.759 -10.81
1017 8 14.527 2.757 -6.565
1018 8 15.88 1.376 -8.366
1019 8 13.906 3.833 -9.651
1020 8 13.387 5.694 -7.849
1021 8 15.258 5.213 -6.048
1022 14 -2.256 16.043 -7.207
1023 8 -2.493 17.497 -6.565
1024 8 -1.141 16.116 -8.366
1025 14 1.999 13.586 -7.207
1026 14 0.0 17.049 -9.009
1027 14 2.256 16.043 -10.81
1028 8 1.762 15.04 -6.565
1029 8 3.114 13.659 -8.366
1030 8 3.634 15.521 -10.168
1031 8 1.141 16.116 -9.651
1032 8 2.493 17.497 -6.048
1033 14 6.254 11.129 -7.207
1034 14 4.255 14.592 -9.009
1035 14 6.511 13.586 -10.81
1036 8 6.017 12.583 -6.565
1037 8 7.369 11.203 -8.366
1038 8 7.889 13.064 -10.168
1039 8 5.396 13.659 -9.651
1040 8 4.876 15.521 -7.849
1041 8 6.748 15.04 -6.048
1042 14 10.51 8.672 -7.207
1043 14 8.51 12.135 -9.009
1044 14 10.766 11.129 -10.81
1045 8 10.272 10.127 -6.565
1046 8 11.625 8.746 -8.366
1047 8 12.144 10.608 -10.168
1048 8 9.651 11.203 -9.651
1049 8 9.132 13.064 -7.849
1050 8 11.003 12.583 -6.048
1051 14 14.765 6.216 -7.207
1052 14 12.765 9.679 -9.009
1053 8 14.527 7.67 -6.565
1054 14 6.254 16.043 -7.207
1055 14 10.51 13.586 -7.207
1056 8 -10.272 -19.354 -0.642
1057 14 -19.02 -10.981 -5.405
1058 8 -17.642 -11.503 -4.763
1059 8 -18.783 -9.527 -0.642
1060 14 -15.021 -15.895 -1.802
1061 14 -17.021 -12.432 -3.603
1062 14 -14.765 -13.438 -5.405
1063 8 -15.258 -14.44 -1.159
1064 8 -13.906 -15.821 -2.961
1065 8 -13.387 -13.959 -4.763
1066 8 -15.88 -13.364 -4.246
1067 8 -16.399 -11.503 -2.444
1068 8 -14.527 -11.984 -0.642
1069 14 -10.766 -18.351 -1.802
1070 14 -12.765 -14.888 -3.603
1071 14 -10.51 -15.895 -5.405
1072 8 -11.003 -16.897 -1.159
1073 8 -9.651 -18.278 -2.961
1074 8 -9.132 -16.416 -4.763
1075 8 -11.625 -15.821 -4.246
1076 8 -12.144 -13.959 -2.444
1077 8 -10.272 -14.44 -0.642
1078 14 -8.51 -17.345 -3.603
1079 14 -6.254 -18.351 -5.405
1080 8 -6.748 -19.354 -1.159
1081 8 -5.396 -20.734 -2.961
1082 8 -4.876 -18.873 -4.763
1083 8 -7.369 -18.278 -4.246
1084 8 -7.889 -16.416 -2.444
1085 8 -6.017 -16.897 -0.642
1086 14 -4.255 -19.802 -3.603