#BIOSYM hessian 1
@Type: Hessian Update
@Units
 distance: 	A
 energy: 	Kcal/Mol
#header
@natom 9

#label
O1      O2      O3      O4      O5      O6      S7      S8      S9

#element
O  O  O  O  O  O  Si Si Si

#matrix
27
 5.883397679064E+01
 -4.086373263344E+01 1.783037241237E+02
 -3.014219053283E+01 1.144072145206E+02 1.031169424636E+02
 5.972042158697E+00 -1.339836883638E+02 -8.400845888464E+01 1.130472567364E+02
 7.138358482307E+01 -1.245408926159E+02 -8.330750998744E+01 7.216378440379E+01 1.240904441779E+02
 -3.014219053283E+01 1.144072145206E+02 1.031169424636E+02 -8.400845888464E+01 -8.330750998744E+01 1.031169424636E+02
 -6.480601894933E+01 1.748474209972E+02 1.141506494175E+02 -1.190192988951E+02 -1.435473692269E+02 1.141506494175E+02 1.838253178444E+02
 -3.051985218963E+01 -5.376283150783E+01 -3.109970453316E+01 6.181990395998E+01 4.504484379455E-01 -3.109970453316E+01 -3.130005177035E+01 5.331238306988E+01
 -3.014219053283E+01 1.144072145206E+02 1.031169424636E+02 -8.400845888464E+01 -8.330750998744E+01 1.031169424636E+02 1.141506494175E+02 -3.109970453316E+01 1.031169424636E+02
 -6.480601894933E+01 1.748474209972E+02 1.141506494175E+02 -1.190192988951E+02 -1.435473692269E+02 1.141506494175E+02 1.838253178444E+02 -3.130005177035E+01 1.141506494175E+02 1.838253178444E+02
 3.051985218963E+01 5.376283150783E+01 3.109970453316E+01 -6.181990395998E+01 -4.504484379456E-01 3.109970453316E+01 3.130005177035E+01 -5.331238306988E+01 3.109970453316E+01 3.130005177035E+01 5.331238306988E+01
 3.014219053283E+01 -1.144072145206E+02 -1.031169424636E+02 8.400845888464E+01 8.330750998744E+01 -1.031169424636E+02 -1.141506494175E+02 3.109970453316E+01 -1.031169424636E+02 -1.141506494175E+02 -3.109970453316E+01 1.031169424636E+02
 5.883397679064E+01 -4.086373263344E+01 -3.014219053283E+01 5.972042158696E+00 7.138358482307E+01 -3.014219053283E+01 -6.480601894933E+01 -3.051985218963E+01 -3.014219053283E+01 -6.480601894933E+01 3.051985218963E+01 3.014219053283E+01 5.883397679064E+01
 4.086373263344E+01 -1.783037241237E+02 -1.144072145206E+02 1.339836883638E+02 1.245408926159E+02 -1.144072145206E+02 -1.748474209972E+02 5.376283150783E+01 -1.144072145206E+02 -1.748474209972E+02 -5.376283150783E+01 1.144072145206E+02 4.086373263344E+01 1.783037241237E+02
 3.014219053283E+01 -1.144072145206E+02 -1.031169424636E+02 8.400845888464E+01 8.330750998744E+01 -1.031169424636E+02 -1.141506494175E+02 3.109970453316E+01 -1.031169424636E+02 -1.141506494175E+02 -3.109970453316E+01 1.031169424636E+02 3.014219053283E+01 1.144072145206E+02 1.031169424636E+02
 5.972042158697E+00 -1.339836883638E+02 -8.400845888464E+01 1.130472567364E+02 7.216378440379E+01 -8.400845888464E+01 -1.190192988951E+02 6.181990395998E+01 -8.400845888464E+01 -1.190192988951E+02 -6.181990395998E+01 8.400845888464E+01 5.972042158696E+00 1.339836883638E+02 8.400845888464E+01 1.130472567364E+02
 -7.138358482307E+01 1.245408926159E+02 8.330750998744E+01 -7.216378440379E+01 -1.240904441779E+02 8.330750998744E+01 1.435473692269E+02 -4.504484379454E-01 8.330750998744E+01 1.435473692269E+02 4.504484379455E-01 -8.330750998744E+01 -7.138358482307E+01 -1.245408926159E+02 -8.330750998744E+01 -7.216378440379E+01 1.240904441779E+02
 3.014219053283E+01 -1.144072145206E+02 -1.031169424636E+02 8.400845888464E+01 8.330750998744E+01 -1.031169424636E+02 -1.141506494175E+02 3.109970453316E+01 -1.031169424636E+02 -1.141506494175E+02 -3.109970453316E+01 1.031169424636E+02 3.014219053283E+01 1.144072145206E+02 1.031169424636E+02 8.400845888464E+01 -8.330750998744E+01 1.031169424636E+02
 -7.716623696859E+01 2.453827596234E+02 1.466848791754E+02 -1.739245850003E+02 -1.895193013409E+02 1.466848791754E+02 2.510908219689E+02 -5.586345828245E+01 1.466848791754E+02 2.510908219689E+02 5.586345828245E+01 -1.466848791754E+02 -7.716623696859E+01 -2.453827596234E+02 -1.466848791754E+02 -1.739245850003E+02 1.895193013409E+02 -1.466848791754E+02 4.371363491553E+02
 0.000000000000E+00 0.000000000000E+00 0.000000000000E+00 0.000000000000E+00 0.000000000000E+00 0.000000000000E+00 0.000000000000E+00 0.000000000000E+00 0.000000000000E+00 0.000000000000E+00 0.000000000000E+00 0.000000000000E+00 0.000000000000E+00 0.000000000000E+00 0.000000000000E+00 0.000000000000E+00 0.000000000000E+00 0.000000000000E+00 0.000000000000E+00 0.000000000000E+00
 0.000000000000E+00 0.000000000000E+00 0.000000000000E+00 0.000000000000E+00 0.000000000000E+00 0.000000000000E+00 0.000000000000E+00 0.000000000000E+00 0.000000000000E+00 0.000000000000E+00 0.000000000000E+00 0.000000000000E+00 0.000000000000E+00 0.000000000000E+00 0.000000000000E+00 0.000000000000E+00 0.000000000000E+00 0.000000000000E+00 0.000000000000E+00 0.000000000000E+00 0.000000000000E+00
 3.858311848429E+01 -1.226913798117E+02 -7.334243958771E+01 8.696229250015E+01 9.475965067047E+01 -7.334243958771E+01 -1.255454109844E+02 2.793172914122E+01 -7.334243958771E+01 -1.255454109844E+02 -2.793172914122E+01 7.334243958771E+01 3.858311848429E+01 1.226913798117E+02 7.334243958771E+01 8.696229250015E+01 -9.475965067047E+01 7.334243958771E+01 -2.185681745776E+02 0.000000000000E+00 0.000000000000E+00 1.092840872888E+02
 -6.682792152925E+01 2.125077034846E+02 1.270328317170E+02 -1.506231089529E+02 -1.641285294687E+02 1.270328317170E+02 2.174510304822E+02 -4.837917401585E+01 1.270328317170E+02 2.174510304822E+02 4.837917401585E+01 -1.270328317170E+02 -6.682792152925E+01 -2.125077034846E+02 -1.270328317170E+02 -1.506231089529E+02 1.641285294687E+02 -1.270328317170E+02 3.785711832860E+02 0.000000000000E+00 0.000000000000E+00 -1.892855916430E+02 3.278522618664E+02
 0.000000000000E+00 0.000000000000E+00 0.000000000000E+00 0.000000000000E+00 0.000000000000E+00 0.000000000000E+00 0.000000000000E+00 0.000000000000E+00 0.000000000000E+00 0.000000000000E+00 0.000000000000E+00 0.000000000000E+00 0.000000000000E+00 0.000000000000E+00 0.000000000000E+00 0.000000000000E+00 0.000000000000E+00 0.000000000000E+00 0.000000000000E+00 0.000000000000E+00 0.000000000000E+00 0.000000000000E+00 0.000000000000E+00 0.000000000000E+00
 3.858311848429E+01 -1.226913798117E+02 -7.334243958771E+01 8.696229250015E+01 9.475965067047E+01 -7.334243958771E+01 -1.255454109844E+02 2.793172914122E+01 -7.334243958771E+01 -1.255454109844E+02 -2.793172914122E+01 7.334243958771E+01 3.858311848429E+01 1.226913798117E+02 7.334243958771E+01 8.696229250015E+01 -9.475965067047E+01 7.334243958771E+01 -2.185681745776E+02 0.000000000000E+00 0.000000000000E+00 1.092840872888E+02 -1.892855916430E+02 0.000000000000E+00 1.092840872888E+02
 6.682792152925E+01 -2.125077034846E+02 -1.270328317170E+02 1.506231089529E+02 1.641285294687E+02 -1.270328317170E+02 -2.174510304822E+02 4.837917401585E+01 -1.270328317170E+02 -2.174510304822E+02 -4.837917401585E+01 1.270328317170E+02 6.682792152925E+01 2.125077034846E+02 1.270328317170E+02 1.506231089529E+02 -1.641285294687E+02 1.270328317170E+02 -3.785711832860E+02 0.000000000000E+00 0.000000000000E+00 1.892855916430E+02 -3.278522618664E+02 0.000000000000E+00 1.892855916430E+02 3.278522618664E+02
 0.000000000000E+00 0.000000000000E+00 0.000000000000E+00 0.000000000000E+00 0.000000000000E+00 0.000000000000E+00 0.000000000000E+00 0.000000000000E+00 0.000000000000E+00 0.000000000000E+00 0.000000000000E+00 0.000000000000E+00 0.000000000000E+00 0.000000000000E+00 0.000000000000E+00 0.000000000000E+00 0.000000000000E+00 0.000000000000E+00 0.000000000000E+00 0.000000000000E+00 0.000000000000E+00 0.000000000000E+00 0.000000000000E+00 0.000000000000E+00 0.000000000000E+00 0.000000000000E+00 0.000000000000E+00

